Mg1O1                                   
   1.00000000000000     
     3.237351    0.000000    0.000000
    -1.618675    2.803628    0.000000
     0.000000    0.000000    5.222061
   Zn   O 
     2     2
Direct
  0.666667  0.333333  0.500592
  0.333333  0.666667  0.000592
  0.666667  0.333333  0.879718
  0.333333  0.666667  0.379718
 
   48   48   72
  1.2978      1.3207      1.3894      1.5041      1.6659      1.8776      2.1446      2.4764      2.8864      3.3923    
  4.0150      4.7764      5.6960      6.7867      8.0501      9.4713      11.017      12.633      14.253      15.798    
  17.188      18.351      19.228      19.779      19.969      19.779      19.228      18.351      17.188      15.798    
  14.253      12.633      11.017      9.4713      8.0501      6.7867      5.6960      4.7764      4.0150      3.3923    
  2.8864      2.4764      2.1446      1.8776      1.6659      1.5041      1.3894      1.3207      1.3207      1.3207    
  1.3667      1.4587      1.5971      1.7841      2.0243      2.3258      2.7005      3.1641      3.7345      4.4307    
  5.2697      6.2643      7.4192      8.7281      10.170      11.709      13.293      14.855      16.319      17.610    
  18.652      19.384      19.761      19.761      19.384      18.652      17.610      16.319      14.855      13.293    
  11.709      10.170      8.7281      7.4192      6.2643      5.2697      4.4307      3.7345      3.1641      2.7005    
  2.3258      2.0243      1.7841      1.5971      1.4587      1.3667      1.3894      1.3663      1.3894      1.4587    
  1.5744      1.7382      1.9542      2.2303      2.5781      3.0128      3.5518      4.2131      5.0128      5.9629    
  7.0694      8.3295      9.7303      11.246      12.836      14.447      16.008      17.443      18.669      19.610    
  20.202      20.404      20.202      19.610      18.669      17.443      16.008      14.447      12.836      11.246    
  9.7303      8.3295      7.0694      5.9629      5.0128      4.2131      3.5518      3.0128      2.5781      2.2303    
  1.9542      1.7382      1.5744      1.4587      1.5041      1.4577      1.4577      1.5041      1.5971      1.7382    
  1.9312      2.1837      2.5079      2.9193      3.4363      4.0774      4.8595      5.7953      6.8918      8.1492    
  9.5595      11.105      12.755      14.464      16.171      17.798      19.257      20.454      21.307      21.750    
  21.750      21.307      20.454      19.257      17.798      16.171      14.464      12.755      11.105      9.5595    
  8.1492      6.8918      5.7953      4.8595      4.0774      3.4363      2.9193      2.5079      2.1837      1.9312    
  1.7382      1.5971      1.6659      1.5958      1.5725      1.5958      1.6659      1.7841      1.9542      2.1837    
  2.4849      2.8743      3.3716      3.9972      4.7698      5.7042      6.8098      8.0899      9.5418      11.155    
  12.908      14.766      16.673      18.555      20.314      21.843      23.032      23.789      24.049      23.789    
  23.032      21.843      20.314      18.555      16.673      14.766      12.908      11.155      9.5418      8.0899    
  6.8098      5.7042      4.7698      3.9972      3.3716      2.8743      2.4849      2.1837      1.9542      1.7841    
  1.8776      1.7826      1.7358      1.7358      1.7826      1.8776      2.0243      2.2303      2.5079      2.8743    
  3.3507      3.9596      4.7223      5.6567      6.7756      8.0867      9.5931      11.293      13.175      15.215    
  17.370      19.565      21.701      23.651      25.277      26.449      27.064      27.064      26.449      25.277    
  23.651      21.701      19.565      17.370      15.215      13.175      11.293      9.5931      8.0867      6.7756    
  5.6567      4.7223      3.9596      3.3507      2.8743      2.5079      2.2303      2.0243      2.1446      2.0222    
  1.9512      1.9278      1.9512      2.0222      2.1446      2.3258      2.5781      2.9193      3.3716      3.9596    
  4.7074      5.6362      6.7631      8.1008      9.6593      11.446      13.463      15.701      18.128      20.682    
  23.259      25.719      27.893      29.607      30.707      31.086      30.707      29.607      27.893      25.719    
  23.259      20.682      18.128      15.701      13.463      11.446      9.6593      8.1008      6.7631      5.6362    
  4.7074      3.9596      3.3716      2.9193      2.5781      2.3258      2.4764      2.3222      2.2255      2.1788    
  2.1788      2.2255      2.3222      2.4764      2.7005      3.0128      3.4363      3.9972      4.7223      5.6362    
  6.7600      8.1119      9.7091      11.569      13.709      16.135      18.837      21.765      24.825      27.865    
  30.691      33.080      34.817      35.733      35.733      34.817      33.080      30.691      27.865      24.825    
  21.765      18.837      16.135      13.709      11.569      9.7091      8.1119      6.7600      5.6362      4.7223    
  3.9972      3.4363      3.0128      2.7005      2.8864      2.6946      2.5702      2.5004      2.4778      2.5004    
  2.5702      2.6946      2.8864      3.1641      3.5518      4.0774      4.7698      5.6567      6.7631      8.1119    
  9.7272      11.637      13.871      16.457      19.407      22.695      26.241      29.898      33.449      36.628    
  39.156      40.787      41.351      40.787      39.156      36.628      33.449      29.898      26.241      22.695    
  19.407      16.457      13.871      11.637      9.7272      8.1119      6.7631      5.6567      4.7698      4.0774    
  3.5518      3.1641      3.3923      3.1569      3.0030      2.9111      2.8683      2.8683      2.9111      3.0030    
  3.1569      3.3923      3.7345      4.2131      4.8595      5.7042      6.7756      8.1008      9.7091      11.637    
  13.927      16.628      19.775      23.373      27.368      31.627      35.927      39.969      43.414      45.931    
  47.261      47.261      45.931      43.414      39.969      35.927      31.627      27.368      23.373      19.775    
  16.628      13.927      11.637      9.7091      8.1008      6.7756      5.7042      4.8595      4.2131      3.7345    
  4.0150      3.7316      3.5482      3.4377      3.3798      3.3619      3.3798      3.4377      3.5482      3.7316    
  4.0150      4.4307      5.0128      5.7953      6.8098      8.0867      9.6593      11.569      13.871      16.628    
  19.902      23.730      28.093      32.885      37.896      42.809      47.235      50.767      53.050      53.839    
  53.050      50.767      47.235      42.809      37.896      32.885      28.093      23.730      19.902      16.628    
  13.871      11.569      9.6593      8.0867      6.8098      5.7953      5.0128      4.4307      4.7764      4.4447    
  4.2361      4.1150      4.0520      4.0259      4.0259      4.0520      4.1150      4.2361      4.4447      4.7764    
  5.2697      5.9629      6.8918      8.0899      9.5931      11.446      13.709      16.457      19.775      23.730    
  28.343      33.548      39.163      44.876      50.269      54.874      58.251      60.044      60.044      58.251    
  54.874      50.269      44.876      39.163      33.548      28.343      23.730      19.775      16.457      13.709    
  11.446      9.5931      8.0899      6.8918      5.9629      5.2697      5.6960      5.3227      5.0999      4.9830    
  4.9321      4.9153      4.9121      4.9153      4.9321      4.9830      5.0999      5.3227      5.6960      6.2643    
  7.0694      8.1492      9.5418      11.293      13.463      16.135      19.407      23.373      28.093      33.548    
  39.600      45.965      52.222      57.872      62.422      65.393      66.427      65.393      62.422      57.872    
  52.222      45.965      39.600      33.548      28.093      23.373      19.407      16.135      13.463      11.293    
  9.5418      8.1492      7.0694      6.2643      6.7867      6.3868      6.1690      6.0798      6.0675      6.0872    
  6.1058      6.1058      6.0872      6.0675      6.0798      6.1690      6.3868      6.7867      7.4192      8.3295    
  9.5595      11.155      13.175      15.701      18.837      22.695      27.368      32.885      39.163      45.965    
  52.895      59.459      65.137      69.355      71.609      71.609      69.355      65.137      59.459      52.895    
  45.965      39.163      32.885      27.368      22.695      18.837      15.701      13.175      11.155      9.5595    
  8.3295      7.4193      8.0501      7.6465      7.4611      7.4311      7.4923      7.5855      7.6624      7.6916    
  7.6624      7.5855      7.4923      7.4311      7.4611      7.6465      8.0501      8.7281      9.7303      11.105    
  12.908      15.215      18.128      21.765      26.241      31.627      37.896      44.876      52.222      59.459    
  66.081      71.469      75.007      76.241      75.007      71.469      66.081      59.459      52.222      44.876    
  37.896      31.627      26.241      21.765      18.128      15.215      12.908      11.105      9.7303      8.7281    
  9.4713      9.0931      8.9726      9.0378      9.2119      9.4207      9.5998      9.7019      9.7019      9.5998    
  9.4207      9.2119      9.0378      8.9726      9.0931      9.4713      10.170      11.246      12.755      14.766    
  17.370      20.682      24.825      29.898      35.927      42.809      50.269      57.872      65.137      71.469    
  76.191      78.720      78.720      76.191      71.469      65.137      57.872      50.269      42.809      35.927    
  29.898      24.825      20.682      17.370      14.766      12.755      11.246      10.170      11.017      10.694    
  10.671      10.865      11.188      11.551      11.875      12.104      12.188      12.104      11.875      11.551    
  11.188      10.865      10.671      10.694      11.017      11.709      12.836      14.464      16.673      19.565    
  23.259      27.865      33.449      39.969      47.235      54.874      62.422      69.355      75.007      78.720    
  80.015      78.720      75.007      69.355      62.422      54.874      47.235      39.969      33.449      27.865    
  23.259      19.565      16.673      14.464      12.836      11.709      12.633      12.395      12.495      12.841    
  13.377      14.132      14.999      15.766      16.217      16.217      15.766      14.999      14.132      13.377    
  12.841      12.495      12.395      12.633      13.293      14.447      16.171      18.555      21.701      25.719    
  30.691      36.628      43.414      50.767      58.251      65.393      71.609      76.241      78.720      78.720    
  76.241      71.609      65.393      58.251      50.767      43.414      36.628      30.691      25.719      21.701    
  18.555      16.171      14.447      13.293      14.253      14.119      14.358      15.043      16.435      18.504    
  20.924      23.200      24.821      25.407      24.821      23.200      20.924      18.504      16.435      15.043    
  14.358      14.119      14.253      14.855      16.008      17.798      20.314      23.651      27.893      33.080    
  39.156      45.931      53.050      60.044      66.427      71.609      75.007      76.191      75.007      71.609    
  66.427      60.044      53.050      45.931      39.156      33.080      27.893      23.651      20.314      17.798    
  16.008      14.855      15.798      15.781      16.339      18.077      21.331      25.938      31.295      36.526    
  40.686      42.989      42.989      40.686      36.526      31.295      25.938      21.331      18.077      16.339    
  15.781      15.798      16.319      17.443      19.257      21.843      25.277      29.607      34.817      40.787    
  47.261      53.839      60.044      65.393      69.355      71.469      71.469      69.355      65.393      60.044    
  53.839      47.261      40.787      34.817      29.607      25.277      21.843      19.257      17.443      16.319    
  17.188      17.340      18.711      22.279      28.445      36.931      46.840      56.835      65.411      71.197    
  73.240      71.197      65.411      56.835      46.840      36.931      28.445      22.279      18.711      17.340    
  17.188      17.610      18.669      20.454      23.032      26.449      30.707      35.733      41.351      47.261    
  53.050      58.251      62.422      65.137      66.081      65.137      62.422      58.251      53.050      47.261    
  41.351      35.733      30.707      26.449      23.032      20.454      18.669      17.610      18.351      18.847    
  21.465      27.498      37.491      51.117      67.207      83.936      99.142      110.71      116.96      116.96    
  110.71      99.142      83.936      67.207      51.117      37.491      27.498      21.465      18.847      18.351    
  18.652      19.610      21.307      23.789      27.064      31.086      35.733      40.787      45.931      50.767    
  54.874      57.872      59.459      59.459      57.872      54.874      50.767      45.931      40.787      35.733    
  31.086      27.064      23.789      21.307      19.610      18.652      19.228      20.228      24.320      33.178    
  47.606      67.333      90.999      116.33      140.46      160.41      173.57      178.17      173.57      160.41    
  140.46      116.33      90.999      67.333      47.606      33.178      24.320      20.228      19.228      19.384    
  20.202      21.750      24.049      27.064      30.707      34.817      39.156      43.414      47.235      50.269    
  52.222      52.895      52.222      50.269      47.235      43.414      39.156      34.817      30.707      27.064    
  24.049      21.750      20.202      19.384      19.779      21.308      26.837      38.519      57.542      83.836    
  115.99      151.38      186.48      217.40      240.46      252.78      252.78      240.46      217.40      186.48    
  151.38      115.99      83.836      57.542      38.519      26.837      21.308      19.779      19.761      20.404    
  21.750      23.789      26.449      29.607      33.080      36.628      39.969      42.809      44.876      45.965    
  45.965      44.876      42.809      39.969      36.628      33.080      29.607      26.449      23.789      21.750    
  20.404      19.761      19.969      21.905      28.569      42.674      65.922      98.615      139.48      185.70    
  233.25      277.35      313.17      336.55      344.68      336.55      313.17      277.35      233.25      185.70    
  139.48      98.615      65.922      42.674      28.569      21.905      19.969      19.761      20.202      21.307    
  23.032      25.277      27.893      30.691      33.449      35.927      37.896      39.163      39.600      39.163    
  37.896      35.927      33.449      30.691      27.893      25.277      23.032      21.307      20.202      19.761    
  19.779      21.905      29.187      44.947      71.517      109.75      158.70      215.64      276.20      334.91    
  385.82      423.40      443.36      443.36      423.40      385.82      334.91      276.20      215.64      158.70    
  109.75      71.517      44.947      29.187      21.905      19.779      19.384      19.610      20.454      21.843    
  23.651      25.719      27.865      29.898      31.627      32.885      33.548      33.548      32.885      31.627    
  29.898      27.865      25.719      23.651      21.843      20.454      19.610      19.384      19.228      21.308    
  28.569      44.947      73.483      115.72      171.30      237.80      310.84      384.45      451.80      506.02    
  541.22      553.42      541.22      506.02      451.80      384.45      310.84      237.80      171.30      115.72    
  73.483      44.947      28.569      21.308      19.228      18.652      18.669      19.257      20.314      21.701    
  23.259      24.825      26.241      27.368      28.093      28.343      28.093      27.368      26.241      24.825    
  23.259      21.701      20.314      19.257      18.669      18.652      18.351      20.228      26.837      42.674    
  71.517      115.72      175.69      249.59      333.33      420.83      504.63      576.72      629.67      657.72    
  657.72      629.67      576.72      504.63      420.83      333.33      249.59      175.69      115.72      71.517    
  42.674      26.837      20.228      18.351      17.610      17.443      17.798      18.555      19.565      20.682    
  21.765      22.695      23.373      23.730      23.730      23.373      22.695      21.765      20.682      19.565    
  18.555      17.798      17.443      17.610      17.188      18.847      24.320      38.519      65.922      109.75    
  171.30      249.59      341.13      440.09      538.79      628.45      700.29      746.80      762.90      746.80    
  700.29      628.45      538.79      440.09      341.13      249.59      171.30      109.75      65.922      38.519    
  24.320      18.847      17.188      16.319      16.008      16.171      16.673      17.370      18.128      18.837    
  19.407      19.775      19.902      19.775      19.407      18.837      18.128      17.370      16.673      16.171    
  16.008      16.319      15.798      17.340      21.465      33.178      57.542      98.615      158.70      237.80    
  333.33      440.09      550.61      655.78      745.89      811.90      846.82      846.82      811.90      745.89    
  655.78      550.61      440.09      333.33      237.80      158.70      98.615      57.542      33.178      21.465    
  17.340      15.798      14.855      14.447      14.464      14.766      15.215      15.701      16.135      16.457    
  16.628      16.628      16.457      16.135      15.701      15.215      14.766      14.464      14.447      14.855    
  14.253      15.781      18.711      27.498      47.606      83.836      139.48      215.64      310.84      420.83    
  538.79      655.78      761.66      846.29      901.01      919.95      901.01      846.29      761.66      655.78    
  538.79      420.83      310.84      215.64      139.48      83.836      47.606      27.498      18.711      15.781    
  14.253      13.293      12.836      12.755      12.908      13.175      13.463      13.709      13.871      13.927    
  13.871      13.709      13.463      13.175      12.908      12.755      12.836      13.293      12.633      14.119    
  16.339      22.279      37.491      67.333      115.99      185.70      276.20      384.45      504.63      628.45    
  745.89      846.29      919.75      958.58      958.58      919.75      846.29      745.89      628.45      504.63    
  384.45      276.20      185.70      115.99      67.333      37.491      22.279      16.339      14.119      12.633    
  11.709      11.246      11.105      11.155      11.293      11.446      11.569      11.637      11.637      11.569    
  11.446      11.293      11.155      11.105      11.246      11.709      11.017      12.395      14.358      18.077    
  28.445      51.117      90.999      151.38      233.25      334.91      451.80      576.72      700.29      811.90    
  901.01      958.58      978.49      958.58      901.01      811.90      700.29      576.72      451.80      334.91    
  233.25      151.38      90.999      51.117      28.445      18.077      14.358      12.395      11.017      10.170    
  9.7303      9.5595      9.5418      9.5931      9.6593      9.7091      9.7272      9.7091      9.6593      9.5931    
  9.5418      9.5595      9.7303      10.170      9.4713      10.694      12.495      15.043      21.331      36.931    
  67.207      116.33      186.48      277.35      385.82      506.02      629.67      746.80      846.82      919.95    
  958.58      958.58      919.95      846.82      746.80      629.67      506.02      385.82      277.35      186.48    
  116.33      67.207      36.931      21.331      15.043      12.495      10.694      9.4713      8.7281      8.3295    
  8.1492      8.0899      8.0867      8.1008      8.1119      8.1119      8.1008      8.0867      8.0899      8.1492    
  8.3295      8.7281      8.0501      9.0931      10.671      12.841      16.435      25.938      46.840      83.936    
  140.46      217.40      313.17      423.40      541.22      657.72      762.90      846.82      901.01      919.75    
  901.01      846.82      762.90      657.72      541.22      423.40      313.17      217.40      140.46      83.936    
  46.840      25.938      16.435      12.841      10.671      9.0931      8.0501      7.4192      7.0694      6.8918    
  6.8098      6.7756      6.7631      6.7600      6.7631      6.7756      6.8098      6.8918      7.0694      7.4192    
  6.7867      7.6465      8.9726      10.865      13.377      18.504      31.295      56.835      99.142      160.41    
  240.46      336.55      443.37      553.42      657.72      746.80      811.90      846.29      846.29      811.90    
  746.80      657.72      553.42      443.37      336.55      240.46      160.41      99.142      56.835      31.295    
  18.504      13.377      10.865      8.9726      7.6465      6.7867      6.2643      5.9629      5.7953      5.7042    
  5.6567      5.6362      5.6362      5.6567      5.7042      5.7953      5.9629      6.2643      5.6960      6.3868    
  7.4611      9.0378      11.188      14.132      20.924      36.526      65.411      110.71      173.57      252.78    
  344.68      443.37      541.22      629.67      700.29      745.89      761.66      745.89      700.29      629.67    
  541.22      443.37      344.68      252.78      173.57      110.71      65.411      36.526      20.924      14.132    
  11.188      9.0378      7.4611      6.3868      5.6960      5.2697      5.0128      4.8595      4.7698      4.7223    
  4.7074      4.7223      4.7698      4.8595      5.0128      5.2697      4.7764      5.3227      6.1690      7.4311    
  9.2119      11.551      14.999      23.200      40.686      71.197      116.96      178.17      252.78      336.55    
  423.40      506.02      576.72      628.45      655.78      655.78      628.45      576.72      506.02      423.40    
  336.55      252.78      178.17      116.96      71.197      40.686      23.200      14.999      11.551      9.2119    
  7.4311      6.1690      5.3227      4.7764      4.4307      4.2131      4.0774      3.9972      3.9596      3.9596    
  3.9972      4.0774      4.2131      4.4307      4.0150      4.4447      5.0999      6.0798      7.4923      9.4207    
  11.875      15.766      24.821      42.989      73.240      116.96      173.57      240.46      313.17      385.82    
  451.80      504.63      538.79      550.61      538.79      504.63      451.80      385.82      313.17      240.46    
  173.57      116.96      73.240      42.989      24.821      15.766      11.875      9.4207      7.4923      6.0798    
  5.0999      4.4447      4.0150      3.7345      3.5518      3.4363      3.3716      3.3507      3.3716      3.4363    
  3.5518      3.7345      3.3923      3.7316      4.2361      4.9830      6.0675      7.5855      9.5998      12.104    
  16.217      25.407      42.989      71.197      110.71      160.41      217.40      277.35      334.91      384.45    
  420.83      440.09      440.09      420.83      384.45      334.91      277.35      217.40      160.41      110.71    
  71.197      42.989      25.407      16.217      12.104      9.5998      7.5855      6.0675      4.9830      4.2361    
  3.7316      3.3923      3.1641      3.0128      2.9193      2.8743      2.8743      2.9193      3.0128      3.1641    
  2.8864      3.1569      3.5482      4.1150      4.9321      6.0872      7.6624      9.7019      12.188      16.217    
  24.821      40.686      65.411      99.142      140.46      186.48      233.25      276.20      310.84      333.33    
  341.13      333.33      310.84      276.20      233.25      186.48      140.46      99.142      65.411      40.686    
  24.821      16.217      12.188      9.7019      7.6624      6.0872      4.9321      4.1150      3.5482      3.1569    
  2.8864      2.7005      2.5781      2.5079      2.4849      2.5079      2.5781      2.7005      2.4764      2.6946    
  3.0030      3.4377      4.0520      4.9153      6.1058      7.6916      9.7019      12.104      15.766      23.200    
  36.526      56.835      83.936      116.33      151.38      185.70      215.64      237.80      249.59      249.59    
  237.80      215.64      185.70      151.38      116.33      83.936      56.835      36.526      23.200      15.766    
  12.104      9.7019      7.6916      6.1058      4.9153      4.0520      3.4377      3.0030      2.6946      2.4764    
  2.3258      2.2303      2.1837      2.1837      2.2303      2.3258      2.1446      2.3222      2.5702      2.9111    
  3.3798      4.0259      4.9121      6.1058      7.6624      9.5998      11.875      14.999      20.924      31.295    
  46.840      67.207      90.999      115.99      139.48      158.70      171.30      175.69      171.30      158.70    
  139.48      115.99      90.999      67.207      46.840      31.295      20.924      14.999      11.875      9.5998    
  7.6624      6.1058      4.9121      4.0259      3.3798      2.9111      2.5702      2.3222      2.1446      2.0243    
  1.9542      1.9312      1.9542      2.0243      1.8776      2.0222      2.2255      2.5004      2.8683      3.3619    
  4.0259      4.9153      6.0872      7.5855      9.4207      11.551      14.132      18.504      25.938      36.931    
  51.117      67.333      83.836      98.615      109.75      115.72      115.72      109.75      98.615      83.836    
  67.333      51.117      36.931      25.938      18.504      14.132      11.551      9.4207      7.5855      6.0872    
  4.9153      4.0259      3.3619      2.8683      2.5004      2.2255      2.0222      1.8776      1.7841      1.7382    
  1.7382      1.7841      1.6659      1.7826      1.9512      2.1788      2.4778      2.8683      3.3798      4.0520    
  4.9321      6.0675      7.4923      9.2119      11.188      13.377      16.435      21.331      28.445      37.491    
  47.606      57.542      65.922      71.517      73.483      71.518      65.922      57.542      47.606      37.491    
  28.445      21.331      16.435      13.377      11.188      9.2119      7.4923      6.0675      4.9321      4.0520    
  3.3798      2.8683      2.4778      2.1788      1.9512      1.7826      1.6659      1.5971      1.5744      1.5971    
  1.5041      1.5958      1.7358      1.9278      2.1788      2.5004      2.9111      3.4377      4.1150      4.9830    
  6.0798      7.4311      9.0378      10.865      12.841      15.043      18.077      22.279      27.498      33.178    
  38.519      42.674      44.947      44.947      42.674      38.519      33.178      27.498      22.279      18.077    
  15.043      12.841      10.865      9.0378      7.4311      6.0798      4.9830      4.1150      3.4377      2.9111    
  2.5004      2.1788      1.9278      1.7358      1.5958      1.5041      1.4587      1.4587      1.3894      1.4577    
  1.5725      1.7358      1.9512      2.2255      2.5702      3.0030      3.5482      4.2361      5.0999      6.1690    
  7.4611      8.9726      10.671      12.495      14.358      16.339      18.711      21.465      24.320      26.837    
  28.569      29.187      28.569      26.837      24.320      21.465      18.711      16.339      14.358      12.495    
  10.671      8.9726      7.4611      6.1690      5.0999      4.2361      3.5482      3.0030      2.5702      2.2255    
  1.9512      1.7358      1.5725      1.4577      1.3894      1.3667      1.3207      1.3663      1.4577      1.5958    
  1.7826      2.0222      2.3222      2.6946      3.1569      3.7316      4.4447      5.3227      6.3868      7.6465    
  9.0931      10.694      12.395      14.119      15.781      17.340      18.847      20.228      21.308      21.905    
  21.905      21.308      20.228      18.847      17.340      15.781      14.119      12.395      10.694      9.0931    
  7.6465      6.3868      5.3227      4.4447      3.7316      3.1569      2.6946      2.3222      2.0222      1.7826    
  1.5958      1.4577      1.3663      1.3207      1.2411      1.2626      1.3274      1.4357      1.5886      1.7885    
  2.0397      2.3500      2.7305      3.1965      3.7664      4.4600      5.2955      6.2856      7.4326      8.7236    
  10.128      11.597      13.068      14.469      15.727      16.778      17.568      18.062      18.231      18.062    
  17.568      16.778      15.727      14.469      13.068      11.597      10.128      8.7236      7.4326      6.2856    
  5.2955      4.4600      3.7664      3.1965      2.7305      2.3500      2.0397      1.7885      1.5886      1.4357    
  1.3274      1.2626      1.2626      1.2626      1.3058      1.3922      1.5221      1.6971      1.9206      2.1990    
  2.5416      2.9614      3.4735      4.0946      4.8402      5.7223      6.7459      7.9058      9.1838      10.546    
  11.946      13.324      14.612      15.743      16.653      17.291      17.620      17.620      17.291      16.653    
  15.743      14.612      13.324      11.946      10.546      9.1838      7.9058      6.7459      5.7223      4.8402    
  4.0946      3.4735      2.9614      2.5416      2.1990      1.9206      1.6971      1.5221      1.3922      1.3058    
  1.3274      1.3057      1.3274      1.3922      1.5001      1.6522      1.8513      2.1031      2.4166      2.8042    
  3.2800      3.8596      4.5570      5.3832      6.3439      7.4368      8.6497      9.9589      11.328      12.708    
  14.039      15.255      16.288      17.078      17.573      17.742      17.573      17.078      16.288      15.255    
  14.039      12.708      11.328      9.9589      8.6497      7.4368      6.3439      5.3832      4.5570      3.8596    
  3.2800      2.8041      2.4166      2.1031      1.8513      1.6522      1.5001      1.3922      1.4357      1.3924    