Mg1O1                                   
   1.00000000000000     
     3.237351    0.000000    0.000000
    -1.618675    2.803628    0.000000
     0.000000    0.000000    5.222061
   Zn   O 
     2     2
Direct
  0.666667  0.333333  0.500592
  0.333333  0.666667  0.000592
  0.666667  0.333333  0.879718
  0.333333  0.666667  0.379718
 
   48   48   72
 0.12978292384E+01 0.13207121043E+01 0.13893803592E+01 0.15040869841E+01 0.16658925065E+01
 0.18775635416E+01 0.21446375209E+01 0.24763876680E+01 0.28863759014E+01 0.33923179920E+01
 0.40150453948E+01 0.47764014603E+01 0.56959671632E+01 0.67867133694E+01 0.80500579786E+01
 0.94712910373E+01 0.11016675895E+02 0.12633411925E+02 0.14253004696E+02 0.15797602052E+02
 0.17187932430E+02 0.18351057206E+02 0.19227753712E+02 0.19779122409E+02 0.19968591774E+02
 0.19779123673E+02 0.19227756078E+02 0.18351060122E+02 0.17187935260E+02 0.15797604043E+02
 0.14253005830E+02 0.12633412613E+02 0.11016675524E+02 0.94712892632E+01 0.80500554254E+01
 0.67867107022E+01 0.56959643112E+01 0.47763990306E+01 0.40150436367E+01 0.33923167603E+01
 0.28863753546E+01 0.24763875072E+01 0.21446376725E+01 0.18775637765E+01 0.16658927409E+01
 0.15040871509E+01 0.13893804739E+01 0.13207121524E+01 0.13207121602E+01 0.13207121439E+01
 0.13667145422E+01 0.14586855693E+01 0.15971414093E+01 0.17841283783E+01 0.20243005761E+01
 0.23257796021E+01 0.27005332835E+01 0.31640917501E+01 0.37345200367E+01 0.44306568670E+01
 0.52697077658E+01 0.62643111999E+01 0.74192499880E+01 0.87281019021E+01 0.10170312836E+02
 0.11709377851E+02 0.13292839643E+02 0.14854581064E+02 0.16319426990E+02 0.17609528402E+02
 0.18651575119E+02 0.19383746958E+02 0.19761480731E+02 0.19761481009E+02 0.19383747770E+02
 0.18651576219E+02 0.17609529804E+02 0.16319428675E+02 0.14854582760E+02 0.13292840825E+02
 0.11709378065E+02 0.10170312253E+02 0.87281009001E+01 0.74192484668E+01 0.62643091453E+01
 0.52697059085E+01 0.44306551948E+01 0.37345187351E+01 0.31640910181E+01 0.27005329138E+01
 0.23257795884E+01 0.20243007116E+01 0.17841285853E+01 0.15971416024E+01 0.14586857044E+01
 0.13667146113E+01 0.13893804661E+01 0.13662592650E+01 0.13893804389E+01 0.14586856407E+01
 0.15744181799E+01 0.17381861221E+01 0.19542106531E+01 0.22302801165E+01 0.25780841987E+01
 0.30127860674E+01 0.35518294053E+01 0.42131132364E+01 0.50127823765E+01 0.59629268827E+01
 0.70693700560E+01 0.83295381314E+01 0.97303254251E+01 0.11245995553E+02 0.12836488959E+02
 0.14446835025E+02 0.16008480867E+02 0.17443124720E+02 0.18669099063E+02 0.19609632538E+02
 0.20201699305E+02 0.20403870731E+02 0.20201699587E+02 0.19609633105E+02 0.18669099961E+02
 0.17443125660E+02 0.16008481801E+02 0.14446835979E+02 0.12836489826E+02 0.11245996376E+02
 0.97303258204E+01 0.83295377171E+01 0.70693691697E+01 0.59629258863E+01 0.50127812198E+01
 0.42131122765E+01 0.35518288111E+01 0.30127856852E+01 0.25780841599E+01 0.22302802029E+01
 0.19542108461E+01 0.17381862824E+01 0.15744182882E+01 0.14586856856E+01 0.15040870975E+01
 0.14576618493E+01 0.14576618592E+01 0.15040870946E+01 0.15971415159E+01 0.17381861926E+01
 0.19311504134E+01 0.21837287422E+01 0.25078629087E+01 0.29193003546E+01 0.34362585356E+01
 0.40773981340E+01 0.48594934280E+01 0.57952766817E+01 0.68917901037E+01 0.81491805164E+01
 0.95594681682E+01 0.11104763633E+02 0.12754792884E+02 0.14464273691E+02 0.16171325599E+02
 0.17798352831E+02 0.19256503587E+02 0.20453905469E+02 0.21306657500E+02 0.21750485821E+02
 0.21750485744E+02 0.21306657254E+02 0.20453905244E+02 0.19256503582E+02 0.17798353365E+02
 0.16171326660E+02 0.14464275113E+02 0.12754794424E+02 0.11104764799E+02 0.95594689333E+01
 0.81491809827E+01 0.68917901851E+01 0.57952762598E+01 0.48594929838E+01 0.40773976534E+01
 0.34362581259E+01 0.29193002106E+01 0.25078628593E+01 0.21837288247E+01 0.19311504886E+01
 0.17381862551E+01 0.15971415456E+01 0.16658926350E+01 0.15957770721E+01 0.15724860779E+01
 0.15957771157E+01 0.16658926731E+01 0.17841284940E+01 0.19542107201E+01 0.21837287147E+01
 0.24849062518E+01 0.28743320192E+01 0.33716151869E+01 0.39972002788E+01 0.47698163472E+01
 0.57042223941E+01 0.68097912567E+01 0.80899440784E+01 0.95417606047E+01 0.11154724207E+02
 0.12907881520E+02 0.14765605401E+02 0.16673239682E+02 0.18554687575E+02 0.20314096207E+02
 0.21842973122E+02 0.23032489529E+02 0.23788886891E+02 0.24048534361E+02 0.23788886737E+02
 0.23032489376E+02 0.21842973060E+02 0.20314096530E+02 0.18554688311E+02 0.16673240914E+02
 0.14765607064E+02 0.12907883331E+02 0.11154726050E+02 0.95417621608E+01 0.80899449426E+01
 0.68097915942E+01 0.57042225037E+01 0.47698161850E+01 0.39972001403E+01 0.33716151992E+01
 0.28743320584E+01 0.24849064199E+01 0.21837288482E+01 0.19542108281E+01 0.17841285082E+01
 0.18775636664E+01 0.17825971511E+01 0.17357596918E+01 0.17357596987E+01 0.17825971804E+01
 0.18775636805E+01 0.20243006413E+01 0.22302801353E+01 0.25078628334E+01 0.28743319717E+01
 0.33507166405E+01 0.39595841945E+01 0.47223250040E+01 0.56567269025E+01 0.67756115981E+01
 0.80867259593E+01 0.95931274863E+01 0.11292604182E+02 0.13174770224E+02 0.15215482062E+02
 0.17369705307E+02 0.19565321499E+02 0.21701024058E+02 0.23651008634E+02 0.25277473271E+02
 0.26449415615E+02 0.27063790744E+02 0.27063790595E+02 0.26449415268E+02 0.25277472939E+02
 0.23651008648E+02 0.21701024571E+02 0.19565322757E+02 0.17369707187E+02 0.15215484310E+02
 0.13174772622E+02 0.11292606169E+02 0.95931289838E+01 0.80867270641E+01 0.67756123001E+01
 0.56567271298E+01 0.47223251376E+01 0.39595842619E+01 0.33507166995E+01 0.28743321696E+01
 0.25078629975E+01 0.22302802840E+01 0.20243006905E+01 0.21446376813E+01 0.20222409113E+01
 0.19511670329E+01 0.19278167901E+01 0.19511670402E+01 0.20222408392E+01 0.21446374623E+01
 0.23257794071E+01 0.25780839496E+01 0.29193000542E+01 0.33716149631E+01 0.39595840623E+01
 0.47073753343E+01 0.56362213060E+01 0.67630557335E+01 0.81007599923E+01 0.96593155052E+01
 0.11446079748E+02 0.13463182865E+02 0.15700974616E+02 0.18128213145E+02 0.20681617629E+02
 0.23258811142E+02 0.25718885297E+02 0.27893359000E+02 0.29607287092E+02 0.30706677215E+02
 0.31085709965E+02 0.30706677257E+02 0.29607287215E+02 0.27893359415E+02 0.25718886104E+02
 0.23258812553E+02 0.20681619529E+02 0.18128215431E+02 0.15700977041E+02 0.13463185147E+02
 0.11446081783E+02 0.96593171292E+01 0.81007609512E+01 0.67630561957E+01 0.56362216472E+01
 0.47073755665E+01 0.39595844173E+01 0.33716154965E+01 0.29193005692E+01 0.25780844698E+01
 0.23257797613E+01 0.24763878274E+01 0.23222178037E+01 0.22254884630E+01 0.21787816614E+01
 0.21787816056E+01 0.22254882852E+01 0.23222174690E+01 0.24763872617E+01 0.27005327126E+01
 0.30127854582E+01 0.34362579556E+01 0.39971998755E+01 0.47223247890E+01 0.56362212682E+01
 0.67600017249E+01 0.81118760746E+01 0.97090973633E+01 0.11569325420E+02 0.13708808557E+02
 0.16135469899E+02 0.18836846254E+02 0.21765244309E+02 0.24824697298E+02 0.27865481208E+02
 0.30691148695E+02 0.33079878388E+02 0.34817225431E+02 0.35733005866E+02 0.35733005949E+02
 0.34817225752E+02 0.33079879042E+02 0.30691149762E+02 0.27865482835E+02 0.24824699326E+02
 0.21765246749E+02 0.18836848933E+02 0.16135472423E+02 0.13708810844E+02 0.11569327093E+02
 0.97090984257E+01 0.81118768330E+01 0.67600023280E+01 0.56362217439E+01 0.47223254313E+01
 0.39972006547E+01 0.34362587901E+01 0.30127863623E+01 0.27005334591E+01 0.28863762124E+01
 0.26946325671E+01 0.25702115676E+01 0.25003565439E+01 0.24778422365E+01 0.25003562352E+01
 0.25702109198E+01 0.26946315556E+01 0.28863748204E+01 0.31640905251E+01 0.35518282476E+01
 0.40773971666E+01 0.47698157316E+01 0.56567266229E+01 0.67630557311E+01 0.81118761484E+01
 0.97271824078E+01 0.11636583780E+02 0.13870835408E+02 0.16457413203E+02 0.19407072774E+02
 0.22695034123E+02 0.26241439846E+02 0.29898084257E+02 0.33448775689E+02 0.36627935255E+02
 0.39156437734E+02 0.40787487025E+02 0.41351331065E+02 0.40787487640E+02 0.39156438953E+02
 0.36627937021E+02 0.33448777946E+02 0.29898086859E+02 0.26241442782E+02 0.22695036958E+02
 0.19407075411E+02 0.16457415491E+02 0.13870837123E+02 0.11636585095E+02 0.97271833962E+01
 0.81118768102E+01 0.67630562906E+01 0.56567274908E+01 0.47698168884E+01 0.40773986563E+01
 0.35518299614E+01 0.31640921121E+01 0.33923183569E+01 0.31569057517E+01 0.30029671145E+01
 0.29110740918E+01 0.28683173190E+01 0.28683170885E+01 0.29110733425E+01 0.30029657997E+01
 0.31569039429E+01 0.33923161059E+01 0.37345180846E+01 0.42131115074E+01 0.48594921196E+01
 0.57042216475E+01 0.67756113689E+01 0.81007601316E+01 0.97090976362E+01 0.11636583989E+02
 0.13927155412E+02 0.16627786957E+02 0.19774947114E+02 0.23372939283E+02 0.27368186826E+02
 0.31627112712E+02 0.35927236105E+02 0.39969450094E+02 0.43413512826E+02 0.45930672144E+02
 0.47260962277E+02 0.47260962764E+02 0.45930673540E+02 0.43413514990E+02 0.39969452889E+02
 0.35927239274E+02 0.31627116022E+02 0.27368190030E+02 0.23372942262E+02 0.19774949688E+02
 0.16627788952E+02 0.13927156951E+02 0.11636585010E+02 0.97090983075E+01 0.81007609587E+01
 0.67756126355E+01 0.57042233154E+01 0.48594942870E+01 0.42131139327E+01 0.37345204971E+01
 0.40150460764E+01 0.37315745745E+01 0.35481712500E+01 0.34376973005E+01 0.33797858285E+01
 0.33618913239E+01 0.33797849534E+01 0.34376956229E+01 0.35481687809E+01 0.37315714859E+01
 0.40150425205E+01 0.44306540987E+01 0.50127800820E+01 0.57952750662E+01 0.68097904333E+01
 0.80867257985E+01 0.96593158093E+01 0.11569325879E+02 0.13870835830E+02 0.16627787178E+02
 0.19901869922E+02 0.23729784743E+02 0.28092702372E+02 0.32885348545E+02 0.37895984209E+02
 0.42808777395E+02 0.47234651539E+02 0.50767012406E+02 0.53049521223E+02 0.53839101081E+02
 0.53049522540E+02 0.50767014897E+02 0.47234654922E+02 0.42808781263E+02 0.37895988316E+02
 0.32885352436E+02 0.28092705941E+02 0.23729787688E+02 0.19901872193E+02 0.16627788922E+02
 0.13870836990E+02 0.11569326891E+02 0.96593170222E+01 0.80867273000E+01 0.68097924052E+01
 0.57952777518E+01 0.50127833112E+01 0.44306576326E+01 0.47764022544E+01 0.44447328835E+01
 0.42361370305E+01 0.41150484709E+01 0.40519793242E+01 0.40259090358E+01 0.40259085420E+01
 0.40519778141E+01 0.41150459487E+01 0.42361335423E+01 0.44447287663E+01 0.47763977156E+01
 0.52697043577E+01 0.59629241999E+01 0.68917883498E+01 0.80899432676E+01 0.95931274366E+01
 0.11446080173E+02 0.13708809172E+02 0.16457413791E+02 0.19774947546E+02 0.23729784985E+02
 0.28342551415E+02 0.33547854569E+02 0.39162634710E+02 0.44875691590E+02 0.50269251551E+02
 0.54873776126E+02 0.58250888698E+02 0.60044119578E+02 0.60044120409E+02 0.58250891054E+02
 0.54873779645E+02 0.50269255819E+02 0.44875696146E+02 0.39162639138E+02 0.33547858626E+02
 0.28342554794E+02 0.23729787773E+02 0.19774949740E+02 0.16457415420E+02 0.13708810649E+02
 0.11446081607E+02 0.95931290954E+01 0.80899456477E+01 0.68917916989E+01 0.59629282298E+01
 0.52697088782E+01 0.56959680564E+01 0.53227011532E+01 0.50998617689E+01 0.49830309094E+01
 0.49321372287E+01 0.49153251269E+01 0.49120822786E+01 0.49153238093E+01 0.49321345959E+01
 0.49830271680E+01 0.50998570666E+01 0.53226959514E+01 0.56959627691E+01 0.62643073828E+01
 0.70693672030E+01 0.81491787241E+01 0.95417598313E+01 0.11292604134E+02 0.13463183302E+02
 0.16135470491E+02 0.19407073425E+02 0.23372939822E+02 0.28092702802E+02 0.33547854777E+02
 0.39599710875E+02 0.45964560187E+02 0.52221624894E+02 0.57871845286E+02 0.62421994614E+02
 0.65392635983E+02 0.66426748824E+02 0.65392637848E+02 0.62421998026E+02 0.57871849708E+02
 0.52221629856E+02 0.45964565155E+02 0.39599715536E+02 0.33547858801E+02 0.28092706207E+02
 0.23372942506E+02 0.19407075523E+02 0.16135472360E+02 0.13463185002E+02 0.11292606188E+02
 0.95417626880E+01 0.81491823319E+01 0.70693714919E+01 0.62643123452E+01 0.67867145108E+01
 0.63867746885E+01 0.61689618080E+01 0.60797977177E+01 0.60674855651E+01 0.60871843496E+01
 0.61058212016E+01 0.61058205944E+01 0.60871825734E+01 0.60674825840E+01 0.60797936245E+01
 0.61689566931E+01 0.63867690276E+01 0.67867088178E+01 0.74192462013E+01 0.83295353877E+01
 0.95594664877E+01 0.11154723443E+02 0.13174770111E+02 0.15700974894E+02 0.18836846755E+02
 0.22695034712E+02 0.27368187460E+02 0.32885349149E+02 0.39162635177E+02 0.45964560469E+02
 0.52895330144E+02 0.59459248165E+02 0.65137284633E+02 0.69354862277E+02 0.71609444602E+02
 0.71609445648E+02 0.69354865201E+02 0.65137288909E+02 0.59459253107E+02 0.52895335235E+02
 0.45964565390E+02 0.39162639545E+02 0.32885352943E+02 0.27368190535E+02 0.22695037340E+02
 0.18836849111E+02 0.15700977041E+02 0.13174772625E+02 0.11154726380E+02 0.95594699583E+01
 0.83295397098E+01 0.74192514782E+01 0.80500587195E+01 0.76465339037E+01 0.74610922975E+01
 0.74310933923E+01 0.74923389315E+01 0.75854625804E+01 0.76623530801E+01 0.76916209004E+01
 0.76623519500E+01 0.75854602982E+01 0.74923354666E+01 0.74310891516E+01 0.74610875591E+01
 0.76465289062E+01 0.80500538002E+01 0.87280985102E+01 0.97303229970E+01 0.11104762068E+02
 0.12907880674E+02 0.15215481687E+02 0.18128213148E+02 0.21765244517E+02 0.26241440336E+02
 0.31627113284E+02 0.37895984927E+02 0.44875692176E+02 0.52221625359E+02 0.59459248337E+02
 0.66081108888E+02 0.71469439307E+02 0.75006696595E+02 0.76240889859E+02 0.75006698691E+02
 0.71469443070E+02 0.66081113674E+02 0.59459253450E+02 0.52221630402E+02 0.44875696840E+02
 0.37895989100E+02 0.31627116815E+02 0.26241443473E+02 0.21765247231E+02 0.18128215665E+02
 0.15215484388E+02 0.12907883498E+02 0.11104765408E+02 0.97303272169E+01 0.87281032759E+01
 0.94712914767E+01 0.90930994583E+01 0.89725839214E+01 0.90377611739E+01 0.92119124512E+01
 0.94206841862E+01 0.95997905300E+01 0.97019016812E+01 0.97019014636E+01 0.95997897965E+01
 0.94206829186E+01 0.92119103628E+01 0.90377581086E+01 0.89725801006E+01 0.90930954495E+01
 0.94712878015E+01 0.10170310193E+02 0.11245993570E+02 0.12754791420E+02 0.14765604397E+02
 0.17369704595E+02 0.20681617277E+02 0.24824697247E+02 0.29898084567E+02 0.35927236696E+02
 0.42808778141E+02 0.50269252260E+02 0.57871845802E+02 0.65137284880E+02 0.71469439327E+02
 0.76191140127E+02 0.78719519736E+02 0.78719520805E+02 0.76191143130E+02 0.71469443646E+02
 0.65137289800E+02 0.57871850719E+02 0.50269256901E+02 0.42808782387E+02 0.35927240383E+02
 0.29898087870E+02 0.24824700133E+02 0.20681620049E+02 0.17369707419E+02 0.14765607142E+02
 0.12754794618E+02 0.11245997021E+02 0.10170313631E+02 0.11016676253E+02 0.10694421854E+02
 0.10671304076E+02 0.10865472208E+02 0.11188016457E+02 0.11550511496E+02 0.11874899787E+02
 0.12104109707E+02 0.12187914539E+02 0.12104109871E+02 0.11874899860E+02 0.11550511360E+02
 0.11188016049E+02 0.10865471709E+02 0.10671303151E+02 0.10694419915E+02 0.11016673932E+02
 0.11709376097E+02 0.12836487392E+02 0.14464272254E+02 0.16673238396E+02 0.19565320447E+02
 0.23258810405E+02 0.27865480910E+02 0.33448775819E+02 0.39969450546E+02 0.47234652196E+02
 0.54873776696E+02 0.62421994964E+02 0.69354862339E+02 0.75006696420E+02 0.78719519545E+02
 0.80015210201E+02 0.78719521574E+02 0.75006700057E+02 0.69354866872E+02 0.62421999739E+02
 0.54873781288E+02 0.47234656512E+02 0.39969454389E+02 0.33448779304E+02 0.27865483972E+02
 0.23258813374E+02 0.19565323198E+02 0.16673240992E+02 0.14464274971E+02 0.12836489712E+02
 0.11709378266E+02 0.12633411727E+02 0.12394658121E+02 0.12494995863E+02 0.12841492712E+02
 0.13377435540E+02 0.14131739316E+02 0.14998644775E+02 0.15766132150E+02 0.16216975976E+02
 0.16216976625E+02 0.15766134041E+02 0.14998647486E+02 0.14131742313E+02 0.13377438099E+02
 0.12841494374E+02 0.12494997473E+02 0.12394659294E+02 0.12633411400E+02 0.13292838766E+02
 0.14446833830E+02 0.16171324166E+02 0.18554686099E+02 0.21701022751E+02 0.25718884401E+02
 0.30691148242E+02 0.36627935353E+02 0.43413513176E+02 0.50767012881E+02 0.58250888993E+02
 0.65392635933E+02 0.71609444232E+02 0.76240889307E+02 0.78719520276E+02 0.78719521277E+02
 0.76240892074E+02 0.71609448230E+02 0.65392640462E+02 0.58250893486E+02 0.50767017137E+02
 0.43413517022E+02 0.36627938812E+02 0.30691151265E+02 0.25718887244E+02 0.21701025258E+02
 0.18554688479E+02 0.16171326317E+02 0.14446835238E+02 0.13292839891E+02 0.14253003503E+02
 0.14118657638E+02 0.14358330554E+02 0.15042764183E+02 0.16435398608E+02 0.18504265948E+02
 0.20924309014E+02 0.23200179228E+02 0.24820658291E+02 0.25407191379E+02 0.24820660336E+02
 0.23200183068E+02 0.20924314086E+02 0.18504271892E+02 0.16435405031E+02 0.15042769846E+02
 0.14358334347E+02 0.14118660704E+02 0.14253005448E+02 0.14854580885E+02 0.16008479950E+02
 0.17798351390E+02 0.20314094689E+02 0.23651007246E+02 0.27893358125E+02 0.33079877920E+02
 0.39156437760E+02 0.45930672332E+02 0.53049521365E+02 0.60044119432E+02 0.66426748261E+02
 0.71609444738E+02 0.75006697661E+02 0.76191142233E+02 0.75006699494E+02 0.71609448012E+02
 0.66426752365E+02 0.60044123767E+02 0.53049525602E+02 0.45930676275E+02 0.39156441311E+02
 0.33079880995E+02 0.27893360920E+02 0.23651009626E+02 0.20314096874E+02 0.17798352983E+02
 0.16008480661E+02 0.14854580935E+02 0.15797600697E+02 0.15780850185E+02 0.16338683288E+02
 0.18076606895E+02 0.21331212777E+02 0.25937581587E+02 0.31295384513E+02 0.36526119897E+02
 0.40685989235E+02 0.42988523777E+02 0.42988525403E+02 0.40685993715E+02 0.36526126814E+02
 0.31295392850E+02 0.25937590293E+02 0.21331221324E+02 0.18076615238E+02 0.16338690112E+02
 0.15780854321E+02 0.15797603752E+02 0.16319427321E+02 0.17443124052E+02 0.19256502309E+02
 0.21842971801E+02 0.25277472147E+02 0.29607286481E+02 0.34817225224E+02 0.40787487090E+02
 0.47260962365E+02 0.53839100831E+02 0.60044119756E+02 0.65392636714E+02 0.69354863807E+02
 0.71469441672E+02 0.71469442549E+02 0.69354866211E+02 0.65392640245E+02 0.60044123791E+02
 0.53839105017E+02 0.47260966314E+02 0.40787490692E+02 0.34817228265E+02 0.29607289166E+02
 0.25277474275E+02 0.21842973676E+02 0.19256503330E+02 0.17443124398E+02 0.16319426336E+02
 0.17187931464E+02 0.17339582267E+02 0.18710659729E+02 0.22278575912E+02 0.28444603663E+02
 0.36931016807E+02 0.46839886571E+02 0.56834911927E+02 0.65410566747E+02 0.71196903614E+02
 0.73239600171E+02 0.71196906923E+02 0.65410573016E+02 0.56834920629E+02 0.46839897159E+02
 0.36931028020E+02 0.28444614280E+02 0.22278585063E+02 0.18710667832E+02 0.17339587607E+02
 0.17187934603E+02 0.17609528967E+02 0.18669098616E+02 0.20453904477E+02 0.23032488617E+02
 0.26449414965E+02 0.30706677006E+02 0.35733005960E+02 0.41351331187E+02 0.47260962711E+02
 0.53049521985E+02 0.58250889950E+02 0.62421996471E+02 0.65137287177E+02 0.66081112101E+02
 0.65137288679E+02 0.62421999214E+02 0.58250893482E+02 0.53049525890E+02 0.47260966594E+02
 0.41351334835E+02 0.35733009084E+02 0.30706679727E+02 0.26449417040E+02 0.23032490364E+02
 0.20453905292E+02 0.18669098866E+02 0.17609527386E+02 0.18351056482E+02 0.18846570579E+02
 0.21465308845E+02 0.27497676540E+02 0.37490835076E+02 0.51117154153E+02 0.67206567886E+02
 0.83935615993E+02 0.99141576195E+02 0.11070861174E+03 0.11695649438E+03 0.11695649615E+03
 0.11070861683E+03 0.99141584121E+02 0.83935625638E+02 0.67206578869E+02 0.51117165604E+02
 0.37490846231E+02 0.27497685763E+02 0.21465316407E+02 0.18846576070E+02 0.18351059393E+02
 0.18651575708E+02 0.19609632355E+02 0.21306656963E+02 0.23788886609E+02 0.27063790763E+02
 0.31085710317E+02 0.35733006419E+02 0.40787487877E+02 0.45930673335E+02 0.50767014091E+02
 0.54873778247E+02 0.57871847947E+02 0.59459251292E+02 0.59459251984E+02 0.57871849825E+02
 0.54873781096E+02 0.50767017489E+02 0.45930676993E+02 0.40787491371E+02 0.35733009559E+02
 0.31085712946E+02 0.27063792834E+02 0.23788888173E+02 0.21306657749E+02 0.19609632439E+02
 0.18651574147E+02 0.19227753098E+02 0.20227675901E+02 0.24319560219E+02 0.33178069596E+02
 0.47606149360E+02 0.67333310263E+02 0.90999157753E+02 0.11632563606E+03 0.14045502559E+03
 0.16040504415E+03 0.17356830180E+03 0.17816639471E+03 0.17356830462E+03 0.16040504958E+03
 0.14045503336E+03 0.11632564542E+03 0.90999167782E+02 0.67333320363E+02 0.47606159159E+02
 0.33178077920E+02 0.24319566333E+02 0.20227680475E+02 0.19227755314E+02 0.19383747404E+02
 0.20201699268E+02 0.21750485813E+02 0.24048534632E+02 0.27063791279E+02 0.30706677989E+02
 0.34817226519E+02 0.39156439215E+02 0.43413514728E+02 0.47234653924E+02 0.50269254361E+02
 0.52221628067E+02 0.52895333620E+02 0.52221629137E+02 0.50269256383E+02 0.47234656645E+02
 0.43413517846E+02 0.39156442362E+02 0.34817229467E+02 0.30706680567E+02 0.27063793380E+02
 0.24048536243E+02 0.21750486766E+02 0.20201699550E+02 0.19383746405E+02 0.19779121712E+02
 0.21308192717E+02 0.26836842166E+02 0.38518995494E+02 0.57541638934E+02 0.83836325977E+02
 0.11599090907E+03 0.15137676746E+03 0.18648081512E+03 0.21740449435E+03 0.24046153936E+03
 0.25277739277E+03 0.25277739390E+03 0.24046154245E+03 0.21740449903E+03 0.18648082119E+03
 0.15137677462E+03 0.11599091687E+03 0.83836333470E+02 0.57541645925E+02 0.38519001697E+02
 0.26836846502E+02 0.21308195750E+02 0.19779123112E+02 0.19761480883E+02 0.20403870894E+02
 0.21750486201E+02 0.23788887549E+02 0.26449416409E+02 0.29607288250E+02 0.33079879817E+02
 0.36627937260E+02 0.39969452484E+02 0.42808780268E+02 0.44875694719E+02 0.45964563626E+02
 0.45964564032E+02 0.44875696031E+02 0.42808782189E+02 0.39969454922E+02 0.36627939813E+02
 0.33079882456E+02 0.29607290562E+02 0.26449418459E+02 0.23788889103E+02 0.21750487345E+02
 0.20403871414E+02 0.19761480596E+02 0.19968591174E+02 0.21905184964E+02 0.28569051086E+02
 0.42673921274E+02 0.65921832780E+02 0.98615239488E+02 0.13947637977E+03 0.18570076773E+03
 0.23324802235E+03 0.27734818350E+03 0.31316904512E+03 0.33655019082E+03 0.34467586089E+03
 0.33655019194E+03 0.31316904739E+03 0.27734818647E+03 0.23324802576E+03 0.18570077163E+03
 0.13947638419E+03 0.98615244024E+02 0.65921836632E+02 0.42673924688E+02 0.28569053204E+02
 0.21905186194E+02 0.19968591404E+02 0.19761480876E+02 0.20201699711E+02 0.21306658056E+02
 0.23032490307E+02 0.25277474223E+02 0.27893360339E+02 0.30691150416E+02 0.33448777917E+02
 0.35927238830E+02 0.37895987303E+02 0.39162638003E+02 0.39599714267E+02 0.39162638639E+02
 0.37895988499E+02 0.35927240489E+02 0.33448779888E+02 0.30691152497E+02 0.27893362298E+02
 0.25277476061E+02 0.23032491852E+02 0.21306659376E+02 0.20201700660E+02 0.19761481365E+02
 0.19779123361E+02 0.21905186228E+02 0.29186653441E+02 0.44946717410E+02 0.71517446399E+02
 0.10974505559E+03 0.15870135478E+03 0.21563851624E+03 0.27620321706E+03 0.33490680635E+03
 0.38581827286E+03 0.42340127026E+03 0.44336489866E+03 0.44336489874E+03 0.42340127050E+03
 0.38581827312E+03 0.33490680675E+03 0.27620321747E+03 0.21563851666E+03 0.15870135550E+03
 0.10974505673E+03 0.71517447240E+02 0.44946718102E+02 0.29186653535E+02 0.21905185793E+02
 0.19779122571E+02 0.19383747418E+02 0.19609633185E+02 0.20453906071E+02 0.21842973904E+02
 0.23651009546E+02 0.25718886657E+02 0.27865483029E+02 0.29898086615E+02 0.31627115445E+02
 0.32885351630E+02 0.33547857717E+02 0.33547857975E+02 0.32885352286E+02 0.31627116557E+02
 0.29898087952E+02 0.27865484551E+02 0.25718888197E+02 0.23651011116E+02 0.21842975295E+02
 0.20453907452E+02 0.19609634378E+02 0.19383748560E+02 0.19227756129E+02 0.21308196478E+02
 0.28569054678E+02 0.44946720374E+02 0.73482925632E+02 0.11572155401E+03 0.17130301999E+03
 0.23780227028E+03 0.31083632010E+03 0.38445466748E+03 0.45180468131E+03 0.50601997870E+03
 0.54121587971E+03 0.55341635295E+03 0.54121587946E+03 0.50601997772E+03 0.45180467951E+03
 0.38445466498E+03 0.31083631743E+03 0.23780226768E+03 0.17130301750E+03 0.11572155213E+03
 0.73482923758E+02 0.44946718590E+02 0.28569052858E+02 0.21308194658E+02 0.19227754424E+02
 0.18651575829E+02 0.18669099725E+02 0.19256504114E+02 0.20314096806E+02 0.21701024862E+02
 0.23258812353E+02 0.24824699059E+02 0.26241442176E+02 0.27368189540E+02 0.28092705280E+02
 0.28342554325E+02 0.28092705605E+02 0.27368190166E+02 0.26241443041E+02 0.24824700141E+02
 0.23258813543E+02 0.21701026068E+02 0.20314098000E+02 0.19256505399E+02 0.18669101097E+02
 0.18651577440E+02 0.18351060650E+02 0.20227681715E+02 0.26836849111E+02 0.42673929749E+02
 0.71517454517E+02 0.11572155986E+03 0.17569050529E+03 0.24959021536E+03 0.33332908696E+03
 0.42083279109E+03 0.50462858121E+03 0.57672068209E+03 0.62967127218E+03 0.65772020533E+03
 0.65772020476E+03 0.62967127052E+03 0.57672067942E+03 0.50462857719E+03 0.42083278603E+03
 0.33332908150E+03 0.24959021021E+03 0.17569050042E+03 0.11572155556E+03 0.71517450583E+02
 0.42673926150E+02 0.26836845965E+02 0.20227678994E+02 0.18351058501E+02 0.17609529293E+02
 0.17443125299E+02 0.17798353110E+02 0.18554687886E+02 0.19565322068E+02 0.20681618712E+02
 0.21765245915E+02 0.22695036299E+02 0.23372941789E+02 0.23729787399E+02 0.23729787517E+02
 0.23372942203E+02 0.22695036915E+02 0.21765246733E+02 0.20681619562E+02 0.19565322988E+02
 0.18554688839E+02 0.17798354213E+02 0.17443126595E+02 0.17609531045E+02 0.17187936288E+02
 0.18846577686E+02 0.24319569780E+02 0.38519008868E+02 0.65921848416E+02 0.10974507264E+03
 0.17130303529E+03 0.24959022552E+03 0.34112623930E+03 0.44009250133E+03 0.53879208093E+03
 0.62844665319E+03 0.70028658570E+03 0.74679785419E+03 0.76290049137E+03 0.74679785289E+03
 0.70028658285E+03 0.62844664858E+03 0.53879207498E+03 0.44009249429E+03 0.34112623179E+03
 0.24959021845E+03 0.17130302865E+03 0.10974506667E+03 0.65921843011E+02 0.38519004089E+02
 0.24319565841E+02 0.18846574614E+02 0.17187934078E+02 0.16319427928E+02 0.16008481209E+02
 0.16171325589E+02 0.16673239661E+02 0.17369705615E+02 0.18128214050E+02 0.18836847782E+02
 0.19407074816E+02 0.19774949426E+02 0.19901872246E+02 0.19774949677E+02 0.19407075271E+02
 0.18836848389E+02 0.18128214726E+02 0.17369706329E+02 0.16673240362E+02 0.16171326353E+02
 0.16008482223E+02 0.16319429450E+02 0.15797605593E+02 0.17339589399E+02 0.21465320080E+02
 0.33178086208E+02 0.57541660784E+02 0.98615266345E+02 0.15870138421E+03 0.23780229973E+03
 0.33332911211E+03 0.44009251689E+03 0.55061209190E+03 0.65578162948E+03 0.74588926759E+03
 0.81190326806E+03 0.84682395649E+03 0.84682395575E+03 0.81190326559E+03 0.74588926305E+03
 0.65578162301E+03 0.55061208390E+03 0.44009250832E+03 0.33332910335E+03 0.23780229151E+03
 0.15870137659E+03 0.98615259390E+02 0.57541654686E+02 0.33178081078E+02 0.21465316193E+02
 0.17339586642E+02 0.15797603886E+02 0.14854581832E+02 0.14446835047E+02 0.14464273322E+02
 0.14765605144E+02 0.15215482192E+02 0.15700975405E+02 0.16135471299E+02 0.16457415100E+02
 0.16627789019E+02 0.16627789166E+02 0.16457415465E+02 0.16135471855E+02 0.15700975979E+02
 0.15215482728E+02 0.14765605525E+02 0.14464273694E+02 0.14446835540E+02 0.14854582801E+02
 0.14253007153E+02 0.15780856167E+02 0.18710671268E+02 0.27497694082E+02 0.47606175334E+02
 0.83836359657E+02 0.13947642089E+03 0.21563856230E+03 0.31083636832E+03 0.42083283636E+03
 0.53879211792E+03 0.65578165096E+03 0.76165713401E+03 0.84629383038E+03 0.90101364897E+03
 0.91994596351E+03 0.90101364692E+03 0.84629382640E+03 0.76165712807E+03 0.65578164294E+03
 0.53879210857E+03 0.42083282667E+03 0.31083635881E+03 0.21563855349E+03 0.13947641286E+03
 0.83836352521E+02 0.47606169304E+02 0.27497689380E+02 0.18710668105E+02 0.15780854369E+02
 0.14253006423E+02 0.13292840112E+02 0.12836488609E+02 0.12754792231E+02 0.12907881077E+02
 0.13174770326E+02 0.13463183653E+02 0.13708809949E+02 0.13870837167E+02 0.13927157230E+02
 0.13870837427E+02 0.13708810379E+02 0.13463184108E+02 0.13174770656E+02 0.12907881173E+02
 0.12754792110E+02 0.12836488413E+02 0.13292840175E+02 0.12633412671E+02 0.14118662482E+02
 0.16338692819E+02 0.22278592191E+02 0.37490861621E+02 0.67333347465E+02 0.11599095759E+03
 0.18570082615E+03 0.27620328353E+03 0.38445473811E+03 0.50462865119E+03 0.62844671557E+03
 0.74588931557E+03 0.84629385702E+03 0.91975051995E+03 0.95857897222E+03 0.95857897128E+03
 0.91975051690E+03 0.84629385151E+03 0.74588930782E+03 0.62844670637E+03 0.50462864095E+03
 0.38445472800E+03 0.27620327395E+03 0.18570081740E+03 0.11599094986E+03 0.67333340855E+02
 0.37490856545E+02 0.22278588781E+02 0.16338691125E+02 0.14118662114E+02 0.12633413281E+02
 0.11709377896E+02 0.11245994900E+02 0.11104762815E+02 0.11154723753E+02 0.11292604324E+02
 0.11446080594E+02 0.11569326774E+02 0.11636585400E+02 0.11636585511E+02 0.11569327092E+02
 0.11446080914E+02 0.11292604482E+02 0.11154723518E+02 0.11104762167E+02 0.11245993888E+02
 0.11709376877E+02 0.11016674618E+02 0.12394660610E+02 0.14358336304E+02 0.18076620332E+02
 0.28444627018E+02 0.51117190409E+02 0.90999208129E+02 0.15137683233E+03 0.23324810044E+03
 0.33490689558E+03 0.45180477735E+03 0.57672077928E+03 0.70028667666E+03 0.81190334509E+03
 0.90101370471E+03 0.95857900174E+03 0.97848801837E+03 0.95857899964E+03 0.90101370036E+03
 0.81190333842E+03 0.70028666797E+03 0.57672076929E+03 0.45180476698E+03 0.33490688560E+03
 0.23324809132E+03 0.15137682428E+03 0.90999201346E+02 0.51117185160E+02 0.28444623601E+02
 0.18076618838E+02 0.14358336504E+02 0.12394662017E+02 0.11016676672E+02 0.10170312467E+02
 0.97303245559E+01 0.95594673625E+01 0.95417602768E+01 0.95931278144E+01 0.96593164466E+01
 0.97090986995E+01 0.97271838281E+01 0.97090988391E+01 0.96593165887E+01 0.95931277294E+01
 0.95417597266E+01 0.95594661984E+01 0.97303227849E+01 0.10170310335E+02 0.94712878424E+01
 0.10694420609E+02 0.12494998852E+02 0.15042772737E+02 0.21331230089E+02 0.36931047902E+02
 0.67206614512E+02 0.11632570043E+03 0.18648089701E+03 0.27734828226E+03 0.38581838547E+03
 0.50602010068E+03 0.62967139685E+03 0.74679797360E+03 0.84682406253E+03 0.91994604890E+03
 0.95857903031E+03 0.95857902926E+03 0.91994604575E+03 0.84682405732E+03 0.74679796625E+03
 0.62967138760E+03 0.50602009080E+03 0.38581837553E+03 0.27734827311E+03 0.18648088899E+03
 0.11632569371E+03 0.67206609420E+02 0.36931044610E+02 0.21331228888E+02 0.15042773450E+02
 0.12495001076E+02 0.10694423711E+02 0.94712912364E+01 0.87281012018E+01 0.83295372196E+01
 0.81491798378E+01 0.80899439763E+01 0.80867264590E+01 0.81007610082E+01 0.81118773060E+01