   4   4   0   0
  0.1184929E+02  0.3237351E-09  0.3237351E-09  0.5222061E-09  0.2500000E-15
  1.000000000000000E-004
  CAR 
 Mg1O1                                   
     18.30916043    -26.73196853 1401     -4.56127711      1.00000000
    -26.732  0.0000E+00  0.0000E+00
    -26.700  0.0000E+00  0.0000E+00
    -26.668  0.0000E+00  0.0000E+00
    -26.635  0.0000E+00  0.0000E+00
    -26.603  0.0000E+00  0.0000E+00
    -26.571  0.0000E+00  0.0000E+00
    -26.539  0.0000E+00  0.0000E+00
    -26.507  0.0000E+00  0.0000E+00
    -26.475  0.0000E+00  0.0000E+00
    -26.442  0.0000E+00  0.0000E+00
    -26.410  0.0000E+00  0.0000E+00
    -26.378  0.0000E+00  0.0000E+00
    -26.346  0.0000E+00  0.0000E+00
    -26.314  0.0000E+00  0.0000E+00
    -26.282  0.0000E+00  0.0000E+00
    -26.249  0.0000E+00  0.0000E+00
    -26.217  0.0000E+00  0.0000E+00
    -26.185  0.0000E+00  0.0000E+00
    -26.153  0.0000E+00  0.0000E+00
    -26.121  0.0000E+00  0.0000E+00
    -26.089  0.0000E+00  0.0000E+00
    -26.056  0.0000E+00  0.0000E+00
    -26.024  0.0000E+00  0.0000E+00
    -25.992  0.0000E+00  0.0000E+00
    -25.960  0.0000E+00  0.0000E+00
    -25.928  0.0000E+00  0.0000E+00
    -25.895  0.0000E+00  0.0000E+00
    -25.863  0.0000E+00  0.0000E+00
    -25.831  0.0000E+00  0.0000E+00
    -25.799  0.0000E+00  0.0000E+00
    -25.767  0.0000E+00  0.0000E+00
    -25.735  0.0000E+00  0.0000E+00
    -25.702  0.0000E+00  0.0000E+00
    -25.670  0.0000E+00  0.0000E+00
    -25.638  0.0000E+00  0.0000E+00
    -25.606  0.0000E+00  0.0000E+00
    -25.574  0.0000E+00  0.0000E+00
    -25.542  0.0000E+00  0.0000E+00
    -25.509  0.0000E+00  0.0000E+00
    -25.477  0.0000E+00  0.0000E+00
    -25.445  0.0000E+00  0.0000E+00
    -25.413  0.0000E+00  0.0000E+00
    -25.381  0.0000E+00  0.0000E+00
    -25.349  0.0000E+00  0.0000E+00
    -25.316  0.0000E+00  0.0000E+00
    -25.284  0.0000E+00  0.0000E+00
    -25.252  0.0000E+00  0.0000E+00
    -25.220  0.0000E+00  0.0000E+00
    -25.188  0.0000E+00  0.0000E+00
    -25.156  0.0000E+00  0.0000E+00
    -25.123  0.0000E+00  0.0000E+00
    -25.091  0.0000E+00  0.0000E+00
    -25.059  0.0000E+00  0.0000E+00
    -25.027  0.0000E+00  0.0000E+00
    -24.995  0.0000E+00  0.0000E+00
    -24.962  0.0000E+00  0.0000E+00
    -24.930  0.0000E+00  0.0000E+00
    -24.898  0.0000E+00  0.0000E+00
    -24.866  0.0000E+00  0.0000E+00
    -24.834  0.0000E+00  0.0000E+00
    -24.802  0.0000E+00  0.0000E+00
    -24.769  0.0000E+00  0.0000E+00
    -24.737  0.0000E+00  0.0000E+00
    -24.705  0.0000E+00  0.0000E+00
    -24.673  0.2360E+00  0.9205E-03
    -24.641  0.5855E+00  0.1470E-01
    -24.609  0.8008E+00  0.3712E-01
    -24.576  0.1019E+01  0.6653E-01
    -24.544  0.1219E+01  0.1026E+00
    -24.512  0.1431E+01  0.1453E+00
    -24.480  0.1652E+01  0.1948E+00
    -24.448  0.1892E+01  0.2518E+00
    -24.416  0.2154E+01  0.3167E+00
    -24.383  0.2448E+01  0.3907E+00
    -24.351  0.2791E+01  0.4747E+00
    -24.319  0.3186E+01  0.5708E+00
    -24.287  0.3650E+01  0.6803E+00
    -24.255  0.4252E+01  0.8072E+00
    -24.223  0.4984E+01  0.9551E+00
    -24.190  0.6039E+01  0.1131E+01
    -24.158  0.7682E+01  0.1349E+01
    -24.126  0.1052E+02  0.1649E+01
    -24.094  0.1155E+02  0.2009E+01
    -24.062  0.1235E+02  0.2394E+01
    -24.030  0.1342E+02  0.2809E+01
    -23.997  0.1691E+02  0.3281E+01
    -23.965  0.2410E+02  0.3961E+01
    -23.933  0.0000E+00  0.4000E+01
    -23.901  0.0000E+00  0.4000E+01
    -23.869  0.0000E+00  0.4000E+01
    -23.836  0.0000E+00  0.4000E+01
    -23.804  0.0000E+00  0.4000E+01
    -23.772  0.0000E+00  0.4000E+01
    -23.740  0.0000E+00  0.4000E+01
    -23.708  0.0000E+00  0.4000E+01
    -23.676  0.0000E+00  0.4000E+01
    -23.643  0.0000E+00  0.4000E+01
    -23.611  0.0000E+00  0.4000E+01
    -23.579  0.0000E+00  0.4000E+01
    -23.547  0.0000E+00  0.4000E+01
    -23.515  0.0000E+00  0.4000E+01
    -23.483  0.0000E+00  0.4000E+01
    -23.450  0.0000E+00  0.4000E+01
    -23.418  0.0000E+00  0.4000E+01
    -23.386  0.0000E+00  0.4000E+01
    -23.354  0.0000E+00  0.4000E+01
    -23.322  0.0000E+00  0.4000E+01
    -23.290  0.0000E+00  0.4000E+01
    -23.257  0.0000E+00  0.4000E+01
    -23.225  0.0000E+00  0.4000E+01
    -23.193  0.0000E+00  0.4000E+01
    -23.161  0.0000E+00  0.4000E+01
    -23.129  0.0000E+00  0.4000E+01
    -23.097  0.0000E+00  0.4000E+01
    -23.064  0.0000E+00  0.4000E+01
    -23.032  0.0000E+00  0.4000E+01
    -23.000  0.0000E+00  0.4000E+01
    -22.968  0.0000E+00  0.4000E+01
    -22.936  0.0000E+00  0.4000E+01
    -22.903  0.0000E+00  0.4000E+01
    -22.871  0.0000E+00  0.4000E+01
    -22.839  0.0000E+00  0.4000E+01
    -22.807  0.0000E+00  0.4000E+01
    -22.775  0.0000E+00  0.4000E+01
    -22.743  0.0000E+00  0.4000E+01
    -22.710  0.0000E+00  0.4000E+01
    -22.678  0.0000E+00  0.4000E+01
    -22.646  0.0000E+00  0.4000E+01
    -22.614  0.0000E+00  0.4000E+01
    -22.582  0.0000E+00  0.4000E+01
    -22.550  0.0000E+00  0.4000E+01
    -22.517  0.0000E+00  0.4000E+01
    -22.485  0.0000E+00  0.4000E+01
    -22.453  0.0000E+00  0.4000E+01
    -22.421  0.0000E+00  0.4000E+01
    -22.389  0.0000E+00  0.4000E+01
    -22.357  0.0000E+00  0.4000E+01
    -22.324  0.0000E+00  0.4000E+01
    -22.292  0.0000E+00  0.4000E+01
    -22.260  0.0000E+00  0.4000E+01
    -22.228  0.0000E+00  0.4000E+01
    -22.196  0.0000E+00  0.4000E+01
    -22.164  0.0000E+00  0.4000E+01
    -22.131  0.0000E+00  0.4000E+01
    -22.099  0.0000E+00  0.4000E+01
    -22.067  0.0000E+00  0.4000E+01
    -22.035  0.0000E+00  0.4000E+01
    -22.003  0.0000E+00  0.4000E+01
    -21.970  0.0000E+00  0.4000E+01
    -21.938  0.0000E+00  0.4000E+01
    -21.906  0.0000E+00  0.4000E+01
    -21.874  0.0000E+00  0.4000E+01
    -21.842  0.0000E+00  0.4000E+01
    -21.810  0.0000E+00  0.4000E+01
    -21.777  0.0000E+00  0.4000E+01
    -21.745  0.0000E+00  0.4000E+01
    -21.713  0.0000E+00  0.4000E+01
    -21.681  0.0000E+00  0.4000E+01
    -21.649  0.0000E+00  0.4000E+01
    -21.617  0.0000E+00  0.4000E+01
    -21.584  0.0000E+00  0.4000E+01
    -21.552  0.0000E+00  0.4000E+01
    -21.520  0.0000E+00  0.4000E+01
    -21.488  0.0000E+00  0.4000E+01
    -21.456  0.0000E+00  0.4000E+01
    -21.424  0.0000E+00  0.4000E+01
    -21.391  0.0000E+00  0.4000E+01
    -21.359  0.0000E+00  0.4000E+01
    -21.327  0.0000E+00  0.4000E+01
    -21.295  0.0000E+00  0.4000E+01
    -21.263  0.0000E+00  0.4000E+01
    -21.231  0.0000E+00  0.4000E+01
    -21.198  0.0000E+00  0.4000E+01
    -21.166  0.0000E+00  0.4000E+01
    -21.134  0.0000E+00  0.4000E+01
    -21.102  0.0000E+00  0.4000E+01
    -21.070  0.0000E+00  0.4000E+01
    -21.037  0.0000E+00  0.4000E+01
    -21.005  0.0000E+00  0.4000E+01
    -20.973  0.0000E+00  0.4000E+01
    -20.941  0.0000E+00  0.4000E+01
    -20.909  0.0000E+00  0.4000E+01
    -20.877  0.0000E+00  0.4000E+01
    -20.844  0.0000E+00  0.4000E+01
    -20.812  0.0000E+00  0.4000E+01
    -20.780  0.0000E+00  0.4000E+01
    -20.748  0.0000E+00  0.4000E+01
    -20.716  0.0000E+00  0.4000E+01
    -20.684  0.0000E+00  0.4000E+01
    -20.651  0.0000E+00  0.4000E+01
    -20.619  0.0000E+00  0.4000E+01
    -20.587  0.0000E+00  0.4000E+01
    -20.555  0.0000E+00  0.4000E+01
    -20.523  0.0000E+00  0.4000E+01
    -20.491  0.0000E+00  0.4000E+01
    -20.458  0.0000E+00  0.4000E+01
    -20.426  0.0000E+00  0.4000E+01
    -20.394  0.0000E+00  0.4000E+01
    -20.362  0.0000E+00  0.4000E+01
    -20.330  0.0000E+00  0.4000E+01
    -20.298  0.0000E+00  0.4000E+01
    -20.265  0.0000E+00  0.4000E+01
    -20.233  0.0000E+00  0.4000E+01
    -20.201  0.0000E+00  0.4000E+01
    -20.169  0.0000E+00  0.4000E+01
    -20.137  0.0000E+00  0.4000E+01
    -20.104  0.0000E+00  0.4000E+01
    -20.072  0.0000E+00  0.4000E+01
    -20.040  0.0000E+00  0.4000E+01
    -20.008  0.0000E+00  0.4000E+01
    -19.976  0.0000E+00  0.4000E+01
    -19.944  0.0000E+00  0.4000E+01
    -19.911  0.0000E+00  0.4000E+01
    -19.879  0.0000E+00  0.4000E+01
    -19.847  0.0000E+00  0.4000E+01
    -19.815  0.0000E+00  0.4000E+01
    -19.783  0.0000E+00  0.4000E+01
    -19.751  0.0000E+00  0.4000E+01
    -19.718  0.0000E+00  0.4000E+01
    -19.686  0.0000E+00  0.4000E+01
    -19.654  0.0000E+00  0.4000E+01
    -19.622  0.0000E+00  0.4000E+01
    -19.590  0.0000E+00  0.4000E+01
    -19.558  0.0000E+00  0.4000E+01
    -19.525  0.0000E+00  0.4000E+01
    -19.493  0.0000E+00  0.4000E+01
    -19.461  0.0000E+00  0.4000E+01
    -19.429  0.0000E+00  0.4000E+01
    -19.397  0.0000E+00  0.4000E+01
    -19.365  0.0000E+00  0.4000E+01
    -19.332  0.0000E+00  0.4000E+01
    -19.300  0.0000E+00  0.4000E+01
    -19.268  0.0000E+00  0.4000E+01
    -19.236  0.0000E+00  0.4000E+01
    -19.204  0.0000E+00  0.4000E+01
    -19.171  0.0000E+00  0.4000E+01
    -19.139  0.0000E+00  0.4000E+01
    -19.107  0.0000E+00  0.4000E+01
    -19.075  0.0000E+00  0.4000E+01
    -19.043  0.0000E+00  0.4000E+01
    -19.011  0.0000E+00  0.4000E+01
    -18.978  0.0000E+00  0.4000E+01
    -18.946  0.0000E+00  0.4000E+01
    -18.914  0.0000E+00  0.4000E+01
    -18.882  0.0000E+00  0.4000E+01
    -18.850  0.0000E+00  0.4000E+01
    -18.818  0.0000E+00  0.4000E+01
    -18.785  0.0000E+00  0.4000E+01
    -18.753  0.0000E+00  0.4000E+01
    -18.721  0.0000E+00  0.4000E+01
    -18.689  0.0000E+00  0.4000E+01
    -18.657  0.0000E+00  0.4000E+01
    -18.625  0.0000E+00  0.4000E+01
    -18.592  0.0000E+00  0.4000E+01
    -18.560  0.0000E+00  0.4000E+01
    -18.528  0.0000E+00  0.4000E+01
    -18.496  0.0000E+00  0.4000E+01
    -18.464  0.0000E+00  0.4000E+01
    -18.432  0.0000E+00  0.4000E+01
    -18.399  0.0000E+00  0.4000E+01
    -18.367  0.0000E+00  0.4000E+01
    -18.335  0.0000E+00  0.4000E+01
    -18.303  0.0000E+00  0.4000E+01
    -18.271  0.0000E+00  0.4000E+01
    -18.238  0.0000E+00  0.4000E+01
    -18.206  0.0000E+00  0.4000E+01
    -18.174  0.0000E+00  0.4000E+01
    -18.142  0.0000E+00  0.4000E+01
    -18.110  0.0000E+00  0.4000E+01
    -18.078  0.0000E+00  0.4000E+01
    -18.045  0.0000E+00  0.4000E+01
    -18.013  0.0000E+00  0.4000E+01
    -17.981  0.0000E+00  0.4000E+01
    -17.949  0.0000E+00  0.4000E+01
    -17.917  0.0000E+00  0.4000E+01
    -17.885  0.0000E+00  0.4000E+01
    -17.852  0.0000E+00  0.4000E+01
    -17.820  0.0000E+00  0.4000E+01
    -17.788  0.0000E+00  0.4000E+01
    -17.756  0.0000E+00  0.4000E+01
    -17.724  0.0000E+00  0.4000E+01
    -17.692  0.0000E+00  0.4000E+01
    -17.659  0.0000E+00  0.4000E+01
    -17.627  0.0000E+00  0.4000E+01
    -17.595  0.0000E+00  0.4000E+01
    -17.563  0.0000E+00  0.4000E+01
    -17.531  0.0000E+00  0.4000E+01
    -17.499  0.0000E+00  0.4000E+01
    -17.466  0.0000E+00  0.4000E+01
    -17.434  0.0000E+00  0.4000E+01
    -17.402  0.0000E+00  0.4000E+01
    -17.370  0.0000E+00  0.4000E+01
    -17.338  0.0000E+00  0.4000E+01
    -17.306  0.0000E+00  0.4000E+01
    -17.273  0.0000E+00  0.4000E+01
    -17.241  0.0000E+00  0.4000E+01
    -17.209  0.0000E+00  0.4000E+01
    -17.177  0.0000E+00  0.4000E+01
    -17.145  0.0000E+00  0.4000E+01
    -17.112  0.0000E+00  0.4000E+01
    -17.080  0.0000E+00  0.4000E+01
    -17.048  0.0000E+00  0.4000E+01
    -17.016  0.0000E+00  0.4000E+01
    -16.984  0.0000E+00  0.4000E+01
    -16.952  0.0000E+00  0.4000E+01
    -16.919  0.0000E+00  0.4000E+01
    -16.887  0.0000E+00  0.4000E+01
    -16.855  0.0000E+00  0.4000E+01
    -16.823  0.0000E+00  0.4000E+01
    -16.791  0.0000E+00  0.4000E+01
    -16.759  0.0000E+00  0.4000E+01
    -16.726  0.0000E+00  0.4000E+01
    -16.694  0.0000E+00  0.4000E+01
    -16.662  0.0000E+00  0.4000E+01
    -16.630  0.0000E+00  0.4000E+01
    -16.598  0.0000E+00  0.4000E+01
    -16.566  0.0000E+00  0.4000E+01
    -16.533  0.0000E+00  0.4000E+01
    -16.501  0.0000E+00  0.4000E+01
    -16.469  0.0000E+00  0.4000E+01
    -16.437  0.0000E+00  0.4000E+01
    -16.405  0.0000E+00  0.4000E+01
    -16.373  0.0000E+00  0.4000E+01
    -16.340  0.0000E+00  0.4000E+01
    -16.308  0.0000E+00  0.4000E+01
    -16.276  0.0000E+00  0.4000E+01
    -16.244  0.0000E+00  0.4000E+01
    -16.212  0.0000E+00  0.4000E+01
    -16.179  0.0000E+00  0.4000E+01
    -16.147  0.0000E+00  0.4000E+01
    -16.115  0.0000E+00  0.4000E+01
    -16.083  0.0000E+00  0.4000E+01
    -16.051  0.0000E+00  0.4000E+01
    -16.019  0.0000E+00  0.4000E+01
    -15.986  0.0000E+00  0.4000E+01
    -15.954  0.0000E+00  0.4000E+01
    -15.922  0.0000E+00  0.4000E+01
    -15.890  0.0000E+00  0.4000E+01
    -15.858  0.0000E+00  0.4000E+01
    -15.826  0.0000E+00  0.4000E+01
    -15.793  0.0000E+00  0.4000E+01
    -15.761  0.0000E+00  0.4000E+01
    -15.729  0.0000E+00  0.4000E+01
    -15.697  0.0000E+00  0.4000E+01
    -15.665  0.0000E+00  0.4000E+01
    -15.633  0.0000E+00  0.4000E+01
    -15.600  0.0000E+00  0.4000E+01
    -15.568  0.0000E+00  0.4000E+01
    -15.536  0.0000E+00  0.4000E+01
    -15.504  0.0000E+00  0.4000E+01
    -15.472  0.0000E+00  0.4000E+01
    -15.440  0.0000E+00  0.4000E+01
    -15.407  0.0000E+00  0.4000E+01
    -15.375  0.0000E+00  0.4000E+01
    -15.343  0.0000E+00  0.4000E+01
    -15.311  0.0000E+00  0.4000E+01
    -15.279  0.0000E+00  0.4000E+01
    -15.246  0.0000E+00  0.4000E+01
    -15.214  0.0000E+00  0.4000E+01
    -15.182  0.0000E+00  0.4000E+01
    -15.150  0.0000E+00  0.4000E+01
    -15.118  0.0000E+00  0.4000E+01
    -15.086  0.0000E+00  0.4000E+01
    -15.053  0.0000E+00  0.4000E+01
    -15.021  0.0000E+00  0.4000E+01
    -14.989  0.0000E+00  0.4000E+01
    -14.957  0.0000E+00  0.4000E+01
    -14.925  0.0000E+00  0.4000E+01
    -14.893  0.0000E+00  0.4000E+01
    -14.860  0.0000E+00  0.4000E+01
    -14.828  0.0000E+00  0.4000E+01
    -14.796  0.0000E+00  0.4000E+01
    -14.764  0.0000E+00  0.4000E+01
    -14.732  0.0000E+00  0.4000E+01
    -14.700  0.0000E+00  0.4000E+01
    -14.667  0.0000E+00  0.4000E+01
    -14.635  0.0000E+00  0.4000E+01
    -14.603  0.0000E+00  0.4000E+01
    -14.571  0.0000E+00  0.4000E+01
    -14.539  0.0000E+00  0.4000E+01
    -14.507  0.0000E+00  0.4000E+01
    -14.474  0.0000E+00  0.4000E+01
    -14.442  0.0000E+00  0.4000E+01
    -14.410  0.0000E+00  0.4000E+01
    -14.378  0.0000E+00  0.4000E+01
    -14.346  0.0000E+00  0.4000E+01
    -14.313  0.0000E+00  0.4000E+01
    -14.281  0.0000E+00  0.4000E+01
    -14.249  0.0000E+00  0.4000E+01
    -14.217  0.0000E+00  0.4000E+01
    -14.185  0.0000E+00  0.4000E+01
    -14.153  0.0000E+00  0.4000E+01
    -14.120  0.0000E+00  0.4000E+01
    -14.088  0.0000E+00  0.4000E+01
    -14.056  0.0000E+00  0.4000E+01
    -14.024  0.0000E+00  0.4000E+01
    -13.992  0.0000E+00  0.4000E+01
    -13.960  0.0000E+00  0.4000E+01
    -13.927  0.0000E+00  0.4000E+01
    -13.895  0.0000E+00  0.4000E+01
    -13.863  0.0000E+00  0.4000E+01
    -13.831  0.0000E+00  0.4000E+01
    -13.799  0.0000E+00  0.4000E+01
    -13.767  0.0000E+00  0.4000E+01
    -13.734  0.0000E+00  0.4000E+01
    -13.702  0.0000E+00  0.4000E+01
    -13.670  0.0000E+00  0.4000E+01
    -13.638  0.0000E+00  0.4000E+01
    -13.606  0.0000E+00  0.4000E+01
    -13.574  0.0000E+00  0.4000E+01
    -13.541  0.0000E+00  0.4000E+01
    -13.509  0.0000E+00  0.4000E+01
    -13.477  0.0000E+00  0.4000E+01
    -13.445  0.0000E+00  0.4000E+01
    -13.413  0.0000E+00  0.4000E+01
    -13.380  0.0000E+00  0.4000E+01
    -13.348  0.0000E+00  0.4000E+01
    -13.316  0.0000E+00  0.4000E+01
    -13.284  0.0000E+00  0.4000E+01
    -13.252  0.0000E+00  0.4000E+01
    -13.220  0.0000E+00  0.4000E+01
    -13.187  0.0000E+00  0.4000E+01
    -13.155  0.0000E+00  0.4000E+01
    -13.123  0.0000E+00  0.4000E+01
    -13.091  0.0000E+00  0.4000E+01
    -13.059  0.0000E+00  0.4000E+01
    -13.027  0.0000E+00  0.4000E+01
    -12.994  0.0000E+00  0.4000E+01
    -12.962  0.0000E+00  0.4000E+01
    -12.930  0.0000E+00  0.4000E+01
    -12.898  0.0000E+00  0.4000E+01
    -12.866  0.0000E+00  0.4000E+01
    -12.834  0.0000E+00  0.4000E+01
    -12.801  0.0000E+00  0.4000E+01
    -12.769  0.0000E+00  0.4000E+01
    -12.737  0.0000E+00  0.4000E+01
    -12.705  0.0000E+00  0.4000E+01
    -12.673  0.0000E+00  0.4000E+01
    -12.641  0.0000E+00  0.4000E+01
    -12.608  0.4778E+01  0.4055E+01
    -12.576  0.9204E+01  0.4282E+01
    -12.544  0.2166E+02  0.4718E+01
    -12.512  0.3089E+02  0.5941E+01
    -12.480  0.2877E+02  0.6852E+01
    -12.447  0.3112E+02  0.7763E+01
    -12.415  0.2473E+02  0.8655E+01
    -12.383  0.1689E+02  0.9331E+01
    -12.351  0.1985E+02  0.9874E+01
    -12.319  0.2105E+02  0.1056E+02
    -12.287  0.1688E+02  0.1115E+02
    -12.254  0.1659E+02  0.1169E+02
    -12.222  0.1573E+02  0.1222E+02
    -12.190  0.1379E+02  0.1269E+02
    -12.158  0.1889E+02  0.1317E+02
    -12.126  0.2320E+02  0.1384E+02
    -12.094  0.2117E+02  0.1448E+02
    -12.061  0.2129E+02  0.1515E+02
    -12.029  0.1857E+02  0.1578E+02
    -11.997  0.2098E+02  0.1629E+02
    -11.965  0.3021E+02  0.1702E+02
    -11.933  0.4753E+02  0.1835E+02
    -11.901  0.3349E+02  0.1981E+02
    -11.868  0.2752E+02  0.2069E+02
    -11.836  0.1113E+02  0.2126E+02
    -11.804  0.8368E+01  0.2154E+02
    -11.772  0.8245E+01  0.2181E+02
    -11.740  0.9571E+01  0.2210E+02
    -11.708  0.1102E+02  0.2242E+02
    -11.675  0.1161E+02  0.2278E+02
    -11.643  0.1090E+02  0.2314E+02
    -11.611  0.1128E+02  0.2350E+02
    -11.579  0.8353E+01  0.2390E+02
    -11.547  0.0000E+00  0.2400E+02
    -11.515  0.0000E+00  0.2400E+02
    -11.482  0.0000E+00  0.2400E+02
    -11.450  0.0000E+00  0.2400E+02
    -11.418  0.0000E+00  0.2400E+02
    -11.386  0.0000E+00  0.2400E+02
    -11.354  0.0000E+00  0.2400E+02
    -11.321  0.0000E+00  0.2400E+02
    -11.289  0.0000E+00  0.2400E+02
    -11.257  0.0000E+00  0.2400E+02
    -11.225  0.0000E+00  0.2400E+02
    -11.193  0.0000E+00  0.2400E+02
    -11.161  0.0000E+00  0.2400E+02
    -11.128  0.0000E+00  0.2400E+02
    -11.096  0.0000E+00  0.2400E+02
    -11.064  0.0000E+00  0.2400E+02
    -11.032  0.0000E+00  0.2400E+02
    -11.000  0.0000E+00  0.2400E+02
    -10.968  0.0000E+00  0.2400E+02
    -10.935  0.0000E+00  0.2400E+02
    -10.903  0.0000E+00  0.2400E+02
    -10.871  0.0000E+00  0.2400E+02
    -10.839  0.0000E+00  0.2400E+02
    -10.807  0.0000E+00  0.2400E+02
    -10.775  0.0000E+00  0.2400E+02
    -10.742  0.0000E+00  0.2400E+02
    -10.710  0.0000E+00  0.2400E+02
    -10.678  0.0000E+00  0.2400E+02
    -10.646  0.0000E+00  0.2400E+02
    -10.614  0.0000E+00  0.2400E+02
    -10.582  0.0000E+00  0.2400E+02
    -10.549  0.0000E+00  0.2400E+02
    -10.517  0.0000E+00  0.2400E+02
    -10.485  0.0000E+00  0.2400E+02
    -10.453  0.0000E+00  0.2400E+02
    -10.421  0.0000E+00  0.2400E+02
    -10.388  0.0000E+00  0.2400E+02
    -10.356  0.0000E+00  0.2400E+02
    -10.324  0.0000E+00  0.2400E+02
    -10.292  0.0000E+00  0.2400E+02
    -10.260  0.0000E+00  0.2400E+02
    -10.228  0.0000E+00  0.2400E+02
    -10.195  0.0000E+00  0.2400E+02
    -10.163  0.0000E+00  0.2400E+02
    -10.131  0.0000E+00  0.2400E+02
    -10.099  0.0000E+00  0.2400E+02
    -10.067  0.0000E+00  0.2400E+02
    -10.035  0.0000E+00  0.2400E+02
    -10.002  0.0000E+00  0.2400E+02
     -9.970  0.0000E+00  0.2400E+02
     -9.938  0.0000E+00  0.2400E+02
     -9.906  0.0000E+00  0.2400E+02
     -9.874  0.0000E+00  0.2400E+02
     -9.842  0.0000E+00  0.2400E+02
     -9.809  0.0000E+00  0.2400E+02
     -9.777  0.0000E+00  0.2400E+02
     -9.745  0.0000E+00  0.2400E+02
     -9.713  0.0000E+00  0.2400E+02
     -9.681  0.0000E+00  0.2400E+02
     -9.649  0.0000E+00  0.2400E+02
     -9.616  0.0000E+00  0.2400E+02
     -9.584  0.0000E+00  0.2400E+02
     -9.552  0.0000E+00  0.2400E+02
     -9.520  0.0000E+00  0.2400E+02
     -9.488  0.0000E+00  0.2400E+02
     -9.455  0.0000E+00  0.2400E+02
     -9.423  0.0000E+00  0.2400E+02
     -9.391  0.0000E+00  0.2400E+02
     -9.359  0.0000E+00  0.2400E+02
     -9.327  0.0000E+00  0.2400E+02
     -9.295  0.0000E+00  0.2400E+02
     -9.262  0.0000E+00  0.2400E+02
     -9.230  0.0000E+00  0.2400E+02
     -9.198  0.0000E+00  0.2400E+02
     -9.166  0.0000E+00  0.2400E+02
     -9.134  0.0000E+00  0.2400E+02
     -9.102  0.1946E-01  0.2400E+02
     -9.069  0.5086E-01  0.2400E+02
     -9.037  0.8273E-01  0.2400E+02
     -9.005  0.1175E+00  0.2401E+02
     -8.973  0.1410E+00  0.2401E+02
     -8.941  0.1535E+00  0.2402E+02
     -8.909  0.1679E+00  0.2402E+02
     -8.876  0.1839E+00  0.2403E+02
     -8.844  0.1999E+00  0.2403E+02
     -8.812  0.2149E+00  0.2404E+02
     -8.780  0.2366E+00  0.2405E+02
     -8.748  0.6149E+00  0.2406E+02
     -8.716  0.1081E+01  0.2409E+02
     -8.683  0.1298E+01  0.2413E+02
     -8.651  0.1646E+01  0.2417E+02
     -8.619  0.1819E+01  0.2423E+02
     -8.587  0.1913E+01  0.2429E+02
     -8.555  0.2042E+01  0.2435E+02
     -8.522  0.2195E+01  0.2442E+02
     -8.490  0.2321E+01  0.2449E+02
     -8.458  0.2488E+01  0.2457E+02
     -8.426  0.2703E+01  0.2465E+02
     -8.394  0.2983E+01  0.2475E+02
     -8.362  0.3341E+01  0.2485E+02
     -8.329  0.4150E+01  0.2496E+02
     -8.297  0.4336E+01  0.2510E+02
     -8.265  0.4214E+01  0.2524E+02
     -8.233  0.4526E+01  0.2538E+02
     -8.201  0.4745E+01  0.2553E+02
     -8.169  0.4188E+01  0.2567E+02
     -8.136  0.4178E+01  0.2580E+02
     -8.104  0.3396E+01  0.2593E+02
     -8.072  0.2745E+01  0.2603E+02
     -8.040  0.2467E+01  0.2611E+02
     -8.008  0.2431E+01  0.2619E+02
     -7.976  0.2444E+01  0.2627E+02
     -7.943  0.2457E+01  0.2635E+02
     -7.911  0.2552E+01  0.2642E+02
     -7.879  0.2714E+01  0.2651E+02
     -7.847  0.2919E+01  0.2660E+02
     -7.815  0.2975E+01  0.2670E+02
     -7.783  0.2694E+01  0.2679E+02
     -7.750  0.2044E+01  0.2686E+02
     -7.718  0.1738E+01  0.2692E+02
     -7.686  0.1555E+01  0.2698E+02
     -7.654  0.1456E+01  0.2702E+02
     -7.622  0.1395E+01  0.2707E+02
     -7.589  0.1342E+01  0.2711E+02
     -7.557  0.1302E+01  0.2716E+02
     -7.525  0.1262E+01  0.2720E+02
     -7.493  0.1227E+01  0.2724E+02
     -7.461  0.1199E+01  0.2728E+02
     -7.429  0.1179E+01  0.2731E+02
     -7.396  0.1155E+01  0.2735E+02
     -7.364  0.1152E+01  0.2739E+02
     -7.332  0.1157E+01  0.2743E+02
     -7.300  0.1167E+01  0.2746E+02
     -7.268  0.1177E+01  0.2750E+02
     -7.236  0.1190E+01  0.2754E+02
     -7.203  0.1297E+01  0.2758E+02
     -7.171  0.1834E+01  0.2763E+02
     -7.139  0.2621E+01  0.2770E+02
     -7.107  0.2815E+01  0.2779E+02
     -7.075  0.2636E+01  0.2788E+02
     -7.043  0.2095E+01  0.2795E+02
     -7.010  0.1932E+01  0.2802E+02
     -6.978  0.1945E+01  0.2808E+02
     -6.946  0.2001E+01  0.2814E+02
     -6.914  0.2086E+01  0.2821E+02
     -6.882  0.2104E+01  0.2828E+02
     -6.850  0.2119E+01  0.2834E+02
     -6.817  0.2211E+01  0.2841E+02
     -6.785  0.2271E+01  0.2849E+02
     -6.753  0.2355E+01  0.2856E+02
     -6.721  0.2426E+01  0.2864E+02
     -6.689  0.2510E+01  0.2872E+02
     -6.656  0.2583E+01  0.2880E+02
     -6.624  0.2622E+01  0.2888E+02
     -6.592  0.2700E+01  0.2897E+02
     -6.560  0.2797E+01  0.2906E+02
     -6.528  0.2870E+01  0.2915E+02
     -6.496  0.3060E+01  0.2924E+02
     -6.463  0.3284E+01  0.2934E+02
     -6.431  0.3351E+01  0.2945E+02
     -6.399  0.3382E+01  0.2956E+02
     -6.367  0.3454E+01  0.2967E+02
     -6.335  0.3463E+01  0.2978E+02
     -6.303  0.3176E+01  0.2989E+02
     -6.270  0.3093E+01  0.2999E+02
     -6.238  0.3149E+01  0.3009E+02
     -6.206  0.3189E+01  0.3019E+02
     -6.174  0.3264E+01  0.3030E+02
     -6.142  0.3338E+01  0.3040E+02
     -6.110  0.3409E+01  0.3051E+02
     -6.077  0.3681E+01  0.3062E+02
     -6.045  0.3744E+01  0.3074E+02
     -6.013  0.3835E+01  0.3086E+02
     -5.981  0.3917E+01  0.3099E+02
     -5.949  0.3698E+01  0.3111E+02
     -5.917  0.3712E+01  0.3123E+02
     -5.884  0.3990E+01  0.3135E+02
     -5.852  0.4077E+01  0.3148E+02
     -5.820  0.4110E+01  0.3162E+02
     -5.788  0.4199E+01  0.3175E+02
     -5.756  0.4781E+01  0.3189E+02
     -5.723  0.5466E+01  0.3206E+02
     -5.691  0.5671E+01  0.3224E+02
     -5.659  0.5744E+01  0.3242E+02
     -5.627  0.6473E+01  0.3261E+02
     -5.595  0.6755E+01  0.3283E+02
     -5.563  0.6680E+01  0.3305E+02
     -5.530  0.6528E+01  0.3327E+02
     -5.498  0.5934E+01  0.3347E+02
     -5.466  0.5469E+01  0.3365E+02
     -5.434  0.5209E+01  0.3382E+02
     -5.402  0.5072E+01  0.3399E+02
     -5.370  0.4853E+01  0.3415E+02
     -5.337  0.4676E+01  0.3430E+02
     -5.305  0.4539E+01  0.3445E+02
     -5.273  0.4161E+01  0.3459E+02
     -5.241  0.3797E+01  0.3472E+02
     -5.209  0.3505E+01  0.3483E+02
     -5.177  0.3283E+01  0.3494E+02
     -5.144  0.3074E+01  0.3505E+02
     -5.112  0.2876E+01  0.3514E+02
     -5.080  0.2678E+01  0.3523E+02
     -5.048  0.2508E+01  0.3531E+02
     -5.016  0.2364E+01  0.3539E+02
     -4.984  0.2217E+01  0.3547E+02
     -4.951  0.2099E+01  0.3553E+02
     -4.919  0.1984E+01  0.3560E+02
     -4.887  0.1821E+01  0.3566E+02
     -4.855  0.1686E+01  0.3572E+02
     -4.823  0.1554E+01  0.3577E+02
     -4.791  0.1404E+01  0.3582E+02
     -4.758  0.1272E+01  0.3586E+02
     -4.726  0.1153E+01  0.3590E+02
     -4.694  0.9659E+00  0.3593E+02
     -4.662  0.7868E+00  0.3596E+02
     -4.630  0.5555E+00  0.3598E+02
     -4.597  0.2694E+00  0.3600E+02
     -4.565  0.0000E+00  0.3600E+02
     -4.533  0.0000E+00  0.3600E+02
     -4.501  0.0000E+00  0.3600E+02
     -4.469  0.0000E+00  0.3600E+02
     -4.437  0.0000E+00  0.3600E+02
     -4.404  0.0000E+00  0.3600E+02
     -4.372  0.0000E+00  0.3600E+02
     -4.340  0.0000E+00  0.3600E+02
     -4.308  0.0000E+00  0.3600E+02
     -4.276  0.0000E+00  0.3600E+02
     -4.244  0.0000E+00  0.3600E+02
     -4.211  0.0000E+00  0.3600E+02
     -4.179  0.0000E+00  0.3600E+02
     -4.147  0.0000E+00  0.3600E+02
     -4.115  0.0000E+00  0.3600E+02
     -4.083  0.0000E+00  0.3600E+02
     -4.051  0.0000E+00  0.3600E+02
     -4.018  0.0000E+00  0.3600E+02
     -3.986  0.0000E+00  0.3600E+02
     -3.954  0.0000E+00  0.3600E+02
     -3.922  0.0000E+00  0.3600E+02
     -3.890  0.0000E+00  0.3600E+02
     -3.858  0.0000E+00  0.3600E+02
     -3.825  0.0000E+00  0.3600E+02
     -3.793  0.0000E+00  0.3600E+02
     -3.761  0.0000E+00  0.3600E+02
     -3.729  0.0000E+00  0.3600E+02
     -3.697  0.0000E+00  0.3600E+02
     -3.664  0.0000E+00  0.3600E+02
     -3.632  0.0000E+00  0.3600E+02
     -3.600  0.0000E+00  0.3600E+02
     -3.568  0.0000E+00  0.3600E+02
     -3.536  0.0000E+00  0.3600E+02
     -3.504  0.0000E+00  0.3600E+02
     -3.471  0.0000E+00  0.3600E+02
     -3.439  0.0000E+00  0.3600E+02
     -3.407  0.0000E+00  0.3600E+02
     -3.375  0.0000E+00  0.3600E+02
     -3.343  0.0000E+00  0.3600E+02
     -3.311  0.0000E+00  0.3600E+02
     -3.278  0.0000E+00  0.3600E+02
     -3.246  0.0000E+00  0.3600E+02
     -3.214  0.0000E+00  0.3600E+02
     -3.182  0.0000E+00  0.3600E+02
     -3.150  0.0000E+00  0.3600E+02
     -3.118  0.0000E+00  0.3600E+02
     -3.085  0.0000E+00  0.3600E+02
     -3.053  0.0000E+00  0.3600E+02
     -3.021  0.0000E+00  0.3600E+02
     -2.989  0.0000E+00  0.3600E+02
     -2.957  0.0000E+00  0.3600E+02
     -2.925  0.0000E+00  0.3600E+02
     -2.892  0.0000E+00  0.3600E+02
     -2.860  0.0000E+00  0.3600E+02
     -2.828  0.0000E+00  0.3600E+02
     -2.796  0.0000E+00  0.3600E+02
     -2.764  0.0000E+00  0.3600E+02
     -2.731  0.0000E+00  0.3600E+02
     -2.699  0.0000E+00  0.3600E+02
     -2.667  0.0000E+00  0.3600E+02
     -2.635  0.0000E+00  0.3600E+02
     -2.603  0.0000E+00  0.3600E+02
     -2.571  0.0000E+00  0.3600E+02
     -2.538  0.0000E+00  0.3600E+02
     -2.506  0.0000E+00  0.3600E+02
     -2.474  0.0000E+00  0.3600E+02
     -2.442  0.0000E+00  0.3600E+02
     -2.410  0.0000E+00  0.3600E+02
     -2.378  0.0000E+00  0.3600E+02
     -2.345  0.0000E+00  0.3600E+02
     -2.313  0.0000E+00  0.3600E+02
     -2.281  0.0000E+00  0.3600E+02
     -2.249  0.0000E+00  0.3600E+02
     -2.217  0.0000E+00  0.3600E+02
     -2.185  0.0000E+00  0.3600E+02
     -2.152  0.0000E+00  0.3600E+02
     -2.120  0.0000E+00  0.3600E+02
     -2.088  0.0000E+00  0.3600E+02
     -2.056  0.0000E+00  0.3600E+02
     -2.024  0.0000E+00  0.3600E+02
     -1.992  0.0000E+00  0.3600E+02
     -1.959  0.0000E+00  0.3600E+02
     -1.927  0.0000E+00  0.3600E+02
     -1.895  0.0000E+00  0.3600E+02
     -1.863  0.0000E+00  0.3600E+02
     -1.831  0.0000E+00  0.3600E+02
     -1.798  0.0000E+00  0.3600E+02
     -1.766  0.0000E+00  0.3600E+02
     -1.734  0.0000E+00  0.3600E+02
     -1.702  0.0000E+00  0.3600E+02
     -1.670  0.0000E+00  0.3600E+02
     -1.638  0.0000E+00  0.3600E+02
     -1.605  0.0000E+00  0.3600E+02
     -1.573  0.0000E+00  0.3600E+02
     -1.541  0.0000E+00  0.3600E+02
     -1.509  0.0000E+00  0.3600E+02
     -1.477  0.0000E+00  0.3600E+02
     -1.445  0.0000E+00  0.3600E+02
     -1.412  0.0000E+00  0.3600E+02
     -1.380  0.0000E+00  0.3600E+02
     -1.348  0.0000E+00  0.3600E+02
     -1.316  0.0000E+00  0.3600E+02
     -1.284  0.0000E+00  0.3600E+02
     -1.252  0.0000E+00  0.3600E+02
     -1.219  0.0000E+00  0.3600E+02
     -1.187  0.0000E+00  0.3600E+02
     -1.155  0.0000E+00  0.3600E+02
     -1.123  0.0000E+00  0.3600E+02
     -1.091  0.0000E+00  0.3600E+02
     -1.059  0.0000E+00  0.3600E+02
     -1.026  0.0000E+00  0.3600E+02
     -0.994  0.0000E+00  0.3600E+02
     -0.962  0.0000E+00  0.3600E+02
     -0.930  0.0000E+00  0.3600E+02
     -0.898  0.0000E+00  0.3600E+02
     -0.865  0.0000E+00  0.3600E+02
     -0.833  0.0000E+00  0.3600E+02
     -0.801  0.0000E+00  0.3600E+02
     -0.769  0.0000E+00  0.3600E+02
     -0.737  0.0000E+00  0.3600E+02
     -0.705  0.0000E+00  0.3600E+02
     -0.672  0.0000E+00  0.3600E+02
     -0.640  0.0000E+00  0.3600E+02
     -0.608  0.0000E+00  0.3600E+02
     -0.576  0.0000E+00  0.3600E+02
     -0.544  0.0000E+00  0.3600E+02
     -0.512  0.0000E+00  0.3600E+02
     -0.479  0.0000E+00  0.3600E+02
     -0.447  0.0000E+00  0.3600E+02
     -0.415  0.0000E+00  0.3600E+02
     -0.383  0.0000E+00  0.3600E+02
     -0.351  0.0000E+00  0.3600E+02
     -0.319  0.0000E+00  0.3600E+02
     -0.286  0.0000E+00  0.3600E+02
     -0.254  0.0000E+00  0.3600E+02
     -0.222  0.0000E+00  0.3600E+02
     -0.190  0.0000E+00  0.3600E+02