    4    4    1    1
  0.1184929E+02  0.3237351E-09  0.3237351E-09  0.5222061E-09  0.2500000E-15
  1.000000000000000E-004
  CAR 
 Mg1O1                                   
     36    222     25
 
  0.0000000E+00  0.0000000E+00  0.0000000E+00  0.3086420E-03
    1      -24.684644   1.000000
    2      -24.112836   1.000000
    3      -12.621612   1.000000
    4      -12.621452   1.000000
    5      -12.613394   1.000000
    6      -12.483398   1.000000
    7      -12.483256   1.000000
    8      -12.001929   1.000000
    9      -12.001799   1.000000
   10      -11.877322   1.000000
   11      -11.877177   1.000000
   12      -11.727908   1.000000
   13       -9.131074   1.000000
   14       -5.271809   1.000000
   15       -5.271807   1.000000
   16       -4.593626   1.000000
   17       -4.573710   1.000000
   18       -4.573703   1.000000
   19        0.599961   0.000000
   20        5.522114   0.000000
   21        8.330028   0.000000
   22       13.587216   0.000000
   23       13.587453   0.000000
   24       14.797853   0.000000
   25       15.020546   0.000000
 
  0.5555556E-01  0.0000000E+00  0.0000000E+00  0.1851852E-02
    1      -24.671690   1.000000
    2      -24.107104   1.000000
    3      -12.624258   1.000000
    4      -12.614193   1.000000
    5      -12.599537   1.000000
    6      -12.477761   1.000000
    7      -12.473142   1.000000
    8      -12.005663   1.000000
    9      -12.002449   1.000000
   10      -11.891755   1.000000
   11      -11.876281   1.000000
   12      -11.713692   1.000000
   13       -9.095684   1.000000
   14       -5.381402   1.000000
   15       -5.310082   1.000000
   16       -4.721991   1.000000
   17       -4.614484   1.000000
   18       -4.595999   1.000000
   19        0.774387   0.000000
   20        5.651203   0.000000
   21        8.323096   0.000000
   22       13.166624   0.000000
   23       13.625833   0.000000
   24       14.718923   0.000000
   25       14.884902   0.000000
 
  0.1111111E+00  0.0000000E+00  0.0000000E+00  0.1851852E-02
    1      -24.630908   1.000000
    2      -24.088964   1.000000
    3      -12.617712   1.000000
    4      -12.593247   1.000000
    5      -12.571851   1.000000
    6      -12.459446   1.000000
    7      -12.443230   1.000000
    8      -12.016081   1.000000
    9      -12.003240   1.000000
   10      -11.922173   1.000000
   11      -11.873679   1.000000
   12      -11.683019   1.000000
   13       -8.991076   1.000000
   14       -5.688128   1.000000
   15       -5.419110   1.000000
   16       -5.092927   1.000000
   17       -4.673955   1.000000
   18       -4.654133   1.000000
   19        1.238114   0.000000
   20        6.012345   0.000000
   21        8.304499   0.000000
   22       12.286911   0.000000
   23       13.737165   0.000000
   24       14.049584   0.000000
   25       14.990247   0.000000
 
  0.1666667E+00 -0.1387779E-16  0.0000000E+00  0.1851852E-02
    1      -24.566662   1.000000
    2      -24.063122   1.000000
    3      -12.600370   1.000000
    4      -12.562852   1.000000
    5      -12.534929   1.000000
    6      -12.425916   1.000000
    7      -12.396489   1.000000
    8      -12.031766   1.000000
    9      -12.001373   1.000000
   10      -11.952647   1.000000
   11      -11.870096   1.000000
   12      -11.650009   1.000000
   13       -8.823504   1.000000
   14       -6.152102   1.000000
   15       -5.585411   1.000000
   16       -5.569192   1.000000
   17       -4.770294   1.000000
   18       -4.743818   1.000000
   19        1.876684   0.000000
   20        6.528695   0.000000
   21        8.275557   0.000000
   22       11.326505   0.000000
   23       13.275106   0.000000
   24       13.899840   0.000000
   25       14.766590   0.000000
 
  0.2222222E+00 -0.1387779E-16  0.0000000E+00  0.1851852E-02
    1      -24.485742   1.000000
    2      -24.032188   1.000000
    3      -12.576914   1.000000
    4      -12.528977   1.000000
    5      -12.487732   1.000000
    6      -12.373569   1.000000
    7      -12.337554   1.000000
    8      -12.049695   1.000000
    9      -11.993637   1.000000
   10      -11.975267   1.000000
   11      -11.865946   1.000000
   12      -11.620454   1.000000
   13       -8.604842   1.000000
   14       -6.702403   1.000000
   15       -6.064649   1.000000
   16       -5.782437   1.000000
   17       -4.908441   1.000000
   18       -4.858029   1.000000
   19        2.605869   0.000000
   20        7.087822   0.000000
   21        8.246521   0.000000
   22       10.424914   0.000000
   23       12.562477   0.000000
   24       14.029221   0.000000
   25       14.073765   0.000000
 
  0.2777778E+00 -0.5551115E-16  0.0000000E+00  0.1851852E-02
    1      -24.394421   1.000000
    2      -24.001223   1.000000
    3      -12.555944   1.000000
    4      -12.497661   1.000000
    5      -12.426779   1.000000
    6      -12.300928   1.000000
    7      -12.273110   1.000000
    8      -12.068198   1.000000
    9      -11.984640   1.000000
   10      -11.977638   1.000000
   11      -11.861295   1.000000
   12      -11.597033   1.000000
   13       -8.358293   1.000000
   14       -7.260572   1.000000
   15       -6.533532   1.000000
   16       -5.987706   1.000000
   17       -5.080905   1.000000
   18       -4.980017   1.000000
   19        3.373351   0.000000
   20        7.524464   0.000000
   21        8.246033   0.000000
   22        9.642255   0.000000
   23       11.994113   0.000000
   24       13.330577   0.000000
   25       14.170224   0.000000
 
  0.3333333E+00 -0.2775558E-16  0.0000000E+00  0.1851852E-02
    1      -24.303168   1.000000
    2      -23.978404   1.000000
    3      -12.543526   1.000000
    4      -12.473586   1.000000
    5      -12.356777   1.000000
    6      -12.211777   1.000000
    7      -12.209170   1.000000
    8      -12.089041   1.000000
    9      -11.975119   1.000000
   10      -11.954282   1.000000
   11      -11.856192   1.000000
   12      -11.584069   1.000000
   13       -8.168052   1.000000
   14       -7.714457   1.000000
   15       -6.937470   1.000000
   16       -6.179718   1.000000
   17       -5.283209   1.000000
   18       -5.095636   1.000000
   19        4.142344   0.000000
   20        7.680334   0.000000
   21        8.202325   0.000000
   22        9.087130   0.000000
   23       11.582286   0.000000
   24       12.905794   0.000000
   25       14.091686   0.000000
 
  0.3888889E+00 -0.5551115E-16  0.0000000E+00  0.1851852E-02
    1      -24.222210   1.000000
    2      -23.966249   1.000000
    3      -12.538444   1.000000
    4      -12.457953   1.000000
    5      -12.289197   1.000000
    6      -12.162009   1.000000
    7      -12.121299   1.000000
    8      -12.107194   1.000000
    9      -11.934177   1.000000
   10      -11.928387   1.000000
   11      -11.850997   1.000000
   12      -11.591523   1.000000
   13       -8.333858   1.000000
   14       -7.786806   1.000000
   15       -7.191787   1.000000
   16       -6.335622   1.000000
   17       -5.495814   1.000000
   18       -5.191745   1.000000
   19        4.886004   0.000000
   20        7.655286   0.000000
   21        7.807274   0.000000
   22        8.926586   0.000000
   23       11.283766   0.000000
   24       12.810007   0.000000
   25       13.935177   0.000000
 
  0.4444444E+00 -0.2775558E-16  0.0000000E+00  0.1851852E-02
    1      -24.162058   1.000000
    2      -23.964260   1.000000
    3      -12.537334   1.000000
    4      -12.449671   1.000000
    5      -12.231262   1.000000
    6      -12.145293   1.000000
    7      -12.130147   1.000000
    8      -12.057937   1.000000
    9      -11.907727   1.000000
   10      -11.846856   1.000000
   11      -11.840034   1.000000
   12      -11.635192   1.000000
   13       -8.580296   1.000000
   14       -7.807295   1.000000
   15       -7.206930   1.000000
   16       -6.437775   1.000000
   17       -5.675645   1.000000
   18       -5.253786   1.000000
   19        5.563224   0.000000
   20        7.245846   0.000000
   21        7.601625   0.000000
   22        8.916443   0.000000
   23       11.086760   0.000000
   24       12.901091   0.000000
   25       13.815644   0.000000
 
  0.5000000E+00 -0.5551115E-16  0.0000000E+00  0.9259259E-03
    1      -24.140168   1.000000
    2      -23.966034   1.000000
    3      -12.537455   1.000000
    4      -12.447359   1.000000
    5      -12.189806   1.000000
    6      -12.177149   1.000000
    7      -12.119400   1.000000
    8      -12.044174   1.000000
    9      -11.899870   1.000000
   10      -11.845312   1.000000
   11      -11.726705   1.000000
   12      -11.721219   1.000000
   13       -8.673633   1.000000
   14       -7.845758   1.000000
   15       -7.162743   1.000000
   16       -6.474484   1.000000
   17       -5.752514   1.000000
   18       -5.277989   1.000000
   19        5.948079   0.000000
   20        6.892128   0.000000
   21        7.577201   0.000000
   22        8.912378   0.000000
   23       11.017389   0.000000
   24       12.960919   0.000000
   25       13.772470   0.000000
 
  0.5555556E-01  0.5555556E-01  0.0000000E+00  0.1851852E-02
    1      -24.644606   1.000000
    2      -24.095406   1.000000
    3      -12.620295   1.000000
    4      -12.600546   1.000000
    5      -12.580211   1.000000
    6      -12.466469   1.000000
    7      -12.452474   1.000000
    8      -12.012427   1.000000
    9      -12.003576   1.000000
   10      -11.913513   1.000000
   11      -11.874561   1.000000
   12      -11.691882   1.000000
   13       -9.025793   1.000000
   14       -5.576311   1.000000
   15       -5.404234   1.000000
   16       -4.968045   1.000000
   17       -4.655034   1.000000
   18       -4.640424   1.000000
   19        1.091879   0.000000
   20        5.896488   0.000000
   21        8.310043   0.000000
   22       12.555166   0.000000
   23       13.640199   0.000000
   24       14.328934   0.000000
   25       14.848251   0.000000
 
  0.1111111E+00  0.5555556E-01  0.0000000E+00  0.3703704E-02
    1      -24.591831   1.000000
    2      -24.073435   1.000000
    3      -12.605673   1.000000
    4      -12.576472   1.000000
    5      -12.548213   1.000000
    6      -12.442633   1.000000
    7      -12.412659   1.000000
    8      -12.024535   1.000000
    9      -12.003941   1.000000
   10      -11.942422   1.000000
   11      -11.871645   1.000000
   12      -11.661424   1.000000
   13       -8.889641   1.000000
   14       -5.938070   1.000000
   15       -5.620000   1.000000
   16       -5.321142   1.000000
   17       -4.732155   1.000000
   18       -4.724795   1.000000
   19        1.638667   0.000000
   20        6.336934   0.000000
   21        8.287212   0.000000
   22       11.698466   0.000000
   23       13.381113   0.000000
   24       13.980414   0.000000
   25       14.686871   0.000000
 
  0.1666667E+00  0.5555556E-01  0.0000000E+00  0.3703704E-02
    1      -24.518850   1.000000
    2      -24.044123   1.000000
    3      -12.582105   1.000000
    4      -12.546004   1.000000
    5      -12.505639   1.000000
    6      -12.402949   1.000000
    7      -12.357569   1.000000
    8      -12.040612   1.000000
    9      -11.999496   1.000000
   10      -11.967819   1.000000
   11      -11.867789   1.000000
   12      -11.631212   1.000000
   13       -8.695836   1.000000
   14       -6.430840   1.000000
   15       -5.973406   1.000000
   16       -5.631972   1.000000
   17       -4.848285   1.000000
   18       -4.835213   1.000000
   19        2.318642   0.000000
   20        6.881716   0.000000
   21        8.263272   0.000000
   22       10.815091   0.000000
   23       12.769069   0.000000
   24       13.855217   0.000000
   25       14.320920   0.000000
 
  0.2222222E+00  0.5555556E-01  0.0000000E+00  0.3703704E-02
    1      -24.432430   1.000000
    2      -24.013288   1.000000
    3      -12.558029   1.000000
    4      -12.514449   1.000000
    5      -12.449667   1.000000
    6      -12.345013   1.000000
    7      -12.292957   1.000000
    8      -12.057818   1.000000
    9      -11.987692   1.000000
   10      -11.983790   1.000000
   11      -11.863244   1.000000
   12      -11.605134   1.000000
   13       -8.461384   1.000000
   14       -6.980874   1.000000
   15       -6.391214   1.000000
   16       -5.893198   1.000000
   17       -5.002048   1.000000
   18       -4.961360   1.000000
   19        3.064675   0.000000
   20        7.388623   0.000000
   21        8.264487   0.000000
   22        9.998548   0.000000
   23       12.188708   0.000000
   24       13.389651   0.000000
   25       14.112321   0.000000
 
  0.2777778E+00  0.5555556E-01  0.0000000E+00  0.3703704E-02
    1      -24.341344   1.000000
    2      -23.986668   1.000000
    3      -12.542339   1.000000
    4      -12.486765   1.000000
    5      -12.380356   1.000000
    6      -12.270232   1.000000
    7      -12.223830   1.000000
    8      -12.076227   1.000000
    9      -11.985458   1.000000
   10      -11.967567   1.000000
   11      -11.857743   1.000000
   12      -11.586175   1.000000
   13       -8.227191   1.000000
   14       -7.498746   1.000000
   15       -6.790380   1.000000
   16       -6.127553   1.000000
   17       -5.189817   1.000000
   18       -5.088439   1.000000
   19        3.834169   0.000000
   20        7.661682   0.000000
   21        8.317177   0.000000
   22        9.316582   0.000000
   23       11.749084   0.000000
   24       12.894063   0.000000
   25       13.950120   0.000000
 
  0.3333333E+00  0.5555556E-01  0.0000000E+00  0.3703704E-02
    1      -24.255085   1.000000
    2      -23.969604   1.000000
    3      -12.535501   1.000000
    4      -12.466416   1.000000
    5      -12.309539   1.000000
    6      -12.195303   1.000000
    7      -12.147386   1.000000
    8      -12.097416   1.000000
    9      -11.964126   1.000000
   10      -11.943117   1.000000
   11      -11.850827   1.000000
   12      -11.581128   1.000000
   13       -8.189908   1.000000
   14       -7.779491   1.000000
   15       -7.100658   1.000000
   16       -6.323330   1.000000
   17       -5.400243   1.000000
   18       -5.201761   1.000000
   19        4.595202   0.000000
   20        7.687799   0.000000
   21        8.138365   0.000000
   22        8.966053   0.000000
   23       11.424962   0.000000
   24       12.699240   0.000000
   25       13.758938   0.000000
 
  0.3888889E+00  0.5555556E-01  0.0000000E+00  0.3703704E-02
    1      -24.183617   1.000000
    2      -23.963759   1.000000
    3      -12.533961   1.000000
    4      -12.453855   1.000000
    5      -12.247994   1.000000
    6      -12.147047   1.000000
    7      -12.123983   1.000000
    8      -12.076147   1.000000
    9      -11.920500   1.000000
   10      -11.903425   1.000000
   11      -11.838210   1.000000
   12      -11.603502   1.000000
   13       -8.453871   1.000000
   14       -7.776361   1.000000
   15       -7.211991   1.000000
   16       -6.461276   1.000000
   17       -5.606015   1.000000
   18       -5.285093   1.000000
   19        5.317802   0.000000
   20        7.608999   0.000000
   21        7.634757   0.000000
   22        8.924623   0.000000
   23       11.177304   0.000000
   24       12.797810   0.000000
   25       13.605630   0.000000
 
  0.4444444E+00  0.5555556E-01  0.0000000E+00  0.3703704E-02
    1      -24.140407   1.000000
    2      -23.965135   1.000000
    3      -12.534148   1.000000
    4      -12.447959   1.000000
    5      -12.198715   1.000000
    6      -12.154928   1.000000
    7      -12.123499   1.000000
    8      -12.047389   1.000000
    9      -11.906384   1.000000
   10      -11.857981   1.000000
   11      -11.768449   1.000000
   12      -11.667539   1.000000
   13       -8.629568   1.000000
   14       -7.825743   1.000000
   15       -7.162004   1.000000
   16       -6.528223   1.000000
   17       -5.748005   1.000000
   18       -5.328817   1.000000
   19        5.915601   0.000000
   20        7.081307   0.000000
   21        7.591275   0.000000
   22        8.920201   0.000000
   23       11.038483   0.000000
   24       12.950517   0.000000
   25       13.526102   0.000000
 
  0.1111111E+00  0.1111111E+00  0.0000000E+00  0.1851852E-02
    1      -24.531164   1.000000
    2      -24.048487   1.000000
    3      -12.580625   1.000000
    4      -12.555464   1.000000
    5      -12.510620   1.000000
    6      -12.415522   1.000000
    7      -12.363006   1.000000
    8      -12.035875   1.000000
    9      -12.002931   1.000000
   10      -11.964762   1.000000
   11      -11.868643   1.000000
   12      -11.635134   1.000000
   13       -8.727133   1.000000
   14       -6.272339   1.000000
   15       -6.035609   1.000000
   16       -5.533599   1.000000
   17       -4.849330   1.000000
   18       -4.828275   1.000000
   19        2.220429   0.000000
   20        6.810277   0.000000
   21        8.271823   0.000000
   22       10.996085   0.000000
   23       12.759741   0.000000
   24       13.952467   0.000000
   25       14.143145   0.000000
 
  0.1666667E+00  0.1111111E+00  0.0000000E+00  0.3703704E-02
    1      -24.453435   1.000000
    2      -24.020060   1.000000
    3      -12.549597   1.000000
    4      -12.531969   1.000000
    5      -12.458057   1.000000
    6      -12.374348   1.000000
    7      -12.301002   1.000000
    8      -12.049394   1.000000
    9      -11.995233   1.000000
   10      -11.983163   1.000000
   11      -11.864434   1.000000
   12      -11.609484   1.000000
   13       -8.516157   1.000000
   14       -6.716957   1.000000
   15       -6.449329   1.000000
   16       -5.795728   1.000000
   17       -4.996479   1.000000
   18       -4.959565   1.000000
   19        2.910764   0.000000
   20        7.315647   0.000000
   21        8.291893   0.000000
   22       10.276381   0.000000
   23       12.196185   0.000000
   24       13.454209   0.000000
   25       13.807333   0.000000
 
  0.2222222E+00  0.1111111E+00  0.0000000E+00  0.3703704E-02
    1      -24.365852   1.000000
    2      -23.992815   1.000000
    3      -12.533203   1.000000
    4      -12.500178   1.000000
    5      -12.388237   1.000000
    6      -12.317486   1.000000
    7      -12.232173   1.000000
    8      -12.063468   1.000000
    9      -11.993415   1.000000
   10      -11.979218   1.000000
   11      -11.858405   1.000000
   12      -11.587513   1.000000
   13       -8.284238   1.000000
   14       -7.223351   1.000000
   15       -6.784251   1.000000
   16       -6.085950   1.000000
   17       -5.145770   1.000000
   18       -5.127278   1.000000
   19        3.660227   0.000000
   20        7.647363   0.000000
   21        8.423046   0.000000
   22        9.598797   0.000000
   23       11.789187   0.000000
   24       12.823708   0.000000
   25       13.543984   0.000000
 
  0.2777778E+00  0.1111111E+00  0.0000000E+00  0.3703704E-02
    1      -24.278469   1.000000
    2      -23.972944   1.000000
    3      -12.528581   1.000000
    4      -12.471957   1.000000
    5      -12.312287   1.000000
    6      -12.245848   1.000000
    7      -12.160660   1.000000
    8      -12.079230   1.000000
    9      -11.987853   1.000000
   10      -11.958723   1.000000
   11      -11.849402   1.000000
   12      -11.573516   1.000000
   13       -8.119749   1.000000
   14       -7.644623   1.000000
   15       -7.046581   1.000000
   16       -6.360699   1.000000
   17       -5.327290   1.000000
   18       -5.284456   1.000000
   19        4.428727   0.000000
   20        7.717446   0.000000
   21        8.525019   0.000000
   22        9.064416   0.000000
   23       11.547850   0.000000
   24       12.429707   0.000000
   25       13.292095   0.000000
 
  0.3333333E+00  0.1111111E+00  0.0000000E+00  0.3703704E-02
    1      -24.200632   1.000000
    2      -23.963099   1.000000
    3      -12.529113   1.000000
    4      -12.452747   1.000000
    5      -12.248681   1.000000
    6      -12.177739   1.000000
    7      -12.097984   1.000000
    8      -12.092075   1.000000
    9      -11.953580   1.000000
   10      -11.938174   1.000000
   11      -11.833142   1.000000
   12      -11.577576   1.000000
   13       -8.270858   1.000000
   14       -7.752037   1.000000
   15       -7.173851   1.000000
   16       -6.572122   1.000000
   17       -5.543248   1.000000
   18       -5.397969   1.000000
   19        5.182988   0.000000
   20        7.678286   0.000000
   21        8.121231   0.000000
   22        8.949328   0.000000
   23       11.313282   0.000000
   24       12.497257   0.000000
   25       13.099360   0.000000
 
  0.3888889E+00  0.1111111E+00  0.0000000E+00  0.3703704E-02
    1      -24.143018   1.000000
    2      -23.963707   1.000000
    3      -12.530970   1.000000
    4      -12.442019   1.000000
    5      -12.200264   1.000000
    6      -12.138751   1.000000
    7      -12.118739   1.000000
    8      -12.053525   1.000000
    9      -11.923024   1.000000
   10      -11.896740   1.000000
   11      -11.786801   1.000000
   12      -11.614970   1.000000
   13       -8.502367   1.000000
   14       -7.784505   1.000000
   15       -7.152807   1.000000
   16       -6.676193   1.000000
   17       -5.736414   1.000000
   18       -5.470936   1.000000
   19        5.877635   0.000000
   20        7.541261   0.000000
   21        7.627395   0.000000
   22        8.939466   0.000000
   23       11.106844   0.000000
   24       12.799556   0.000000
   25       13.018124   0.000000
 
  0.4444444E+00  0.1111111E+00  0.0000000E+00  0.1851852E-02
    1      -24.120974   1.000000
    2      -23.966533   1.000000
    3      -12.531932   1.000000
    4      -12.438738   1.000000
    5      -12.174548   1.000000
    6      -12.139835   1.000000
    7      -12.121978   1.000000
    8      -12.043969   1.000000
    9      -11.917102   1.000000
   10      -11.877904   1.000000
   11      -11.705955   1.000000
   12      -11.682059   1.000000
   13       -8.590920   1.000000
   14       -7.811569   1.000000
   15       -7.127854   1.000000
   16       -6.690313   1.000000
   17       -5.822666   1.000000
   18       -5.497043   1.000000
   19        6.283558   0.000000
   20        7.171069   0.000000
   21        7.605187   0.000000
   22        8.931268   0.000000
   23       11.030913   0.000000
   24       12.865682   0.000000
   25       13.107219   0.000000
 
  0.1666667E+00  0.1666667E+00  0.0000000E+00  0.1851852E-02
    1      -24.374691   1.000000
    2      -23.995751   1.000000
    3      -12.527433   1.000000
    4      -12.505533   1.000000
    5      -12.389831   1.000000
    6      -12.336571   1.000000
    7      -12.235192   1.000000
    8      -12.057703   1.000000
    9      -11.996556   1.000000
   10      -11.984383   1.000000
   11      -11.858697   1.000000
   12      -11.587977   1.000000
   13       -8.305814   1.000000
   14       -6.977843   1.000000
   15       -6.938938   1.000000
   16       -6.052710   1.000000
   17       -5.186361   1.000000
   18       -5.104962   1.000000
   19        3.605049   0.000000
   20        7.642163   0.000000
   21        8.463977   0.000000
   22        9.748379   0.000000
   23       11.716646   0.000000
   24       12.983482   0.000000
   25       13.196127   0.000000
 
  0.2222222E+00  0.1666667E+00  0.0000000E+00  0.3703704E-02
    1      -24.291062   1.000000
    2      -23.975252   1.000000
    3      -12.526789   1.000000
    4      -12.466745   1.000000
    5      -12.307120   1.000000
    6      -12.286321   1.000000
    7      -12.165487   1.000000
    8      -12.065470   1.000000
    9      -12.003065   1.000000
   10      -11.969296   1.000000
   11      -11.848581   1.000000
   12      -11.569485   1.000000
   13       -8.115740   1.000000
   14       -7.412183   1.000000
   15       -7.141117   1.000000
   16       -6.360405   1.000000
   17       -5.372587   1.000000
   18       -5.286404   1.000000
   19        4.356763   0.000000
   20        7.734461   0.000000
   21        8.751576   0.000000
   22        9.242815   0.000000
   23       11.481361   0.000000
   24       12.406281   0.000000
   25       12.808755   0.000000
 
  0.2777778E+00  0.1666667E+00  0.0000000E+00  0.3703704E-02
    1      -24.211453   1.000000
    2      -23.963139   1.000000
    3      -12.530647   1.000000
    4      -12.436938   1.000000
    5      -12.249492   1.000000
    6      -12.208582   1.000000
    7      -12.098139   1.000000
    8      -12.073309   1.000000
    9      -11.991866   1.000000
   10      -11.954260   1.000000
   11      -11.830115   1.000000
   12      -11.560818   1.000000
   13       -8.094948   1.000000
   14       -7.714746   1.000000
   15       -7.176000   1.000000
   16       -6.666753   1.000000
   17       -5.537692   1.000000
   18       -5.491024   1.000000
   19        5.124820   0.000000
   20        7.714500   0.000000
   21        8.650255   0.000000
   22        8.974526   0.000000
   23       11.451658   0.000000
   24       12.105249   0.000000
   25       12.569314   0.000000
 
  0.3333333E+00  0.1666667E+00  0.0000000E+00  0.3703704E-02
    1      -24.144951   1.000000
    2      -23.961546   1.000000
    3      -12.535432   1.000000
    4      -12.418289   1.000000
    5      -12.207484   1.000000
    6      -12.149144   1.000000
    7      -12.088598   1.000000
    8      -12.051524   1.000000
    9      -11.946408   1.000000
   10      -11.941631   1.000000
   11      -11.790705   1.000000
   12      -11.574768   1.000000
   13       -8.308281   1.000000
   14       -7.775983   1.000000
   15       -7.119677   1.000000
   16       -6.861138   1.000000
   17       -5.724921   1.000000
   18       -5.638604   1.000000
   19        5.871468   0.000000
   20        7.668513   0.000000
   21        8.105890   0.000000
   22        8.957694   0.000000
   23       11.239534   0.000000
   24       12.330950   0.000000
   25       12.564148   0.000000
 
  0.3888889E+00  0.1666667E+00  0.0000000E+00  0.3703704E-02
    1      -24.103758   1.000000
    2      -23.966637   1.000000
    3      -12.538359   1.000000
    4      -12.409452   1.000000
    5      -12.180998   1.000000
    6      -12.119506   1.000000
    7      -12.100971   1.000000
    8      -12.040266   1.000000
    9      -11.934729   1.000000
   10      -11.907194   1.000000
   11      -11.716323   1.000000
   12      -11.622227   1.000000
   13       -8.466490   1.000000
   14       -7.781434   1.000000
   15       -7.188844   1.000000
   16       -6.805795   1.000000
   17       -5.888466   1.000000
   18       -5.701735   1.000000
   19        6.512416   0.000000
   20        7.561319   0.000000
   21        7.639652   0.000000
   22        8.924698   0.000000
   23       11.073840   0.000000
   24       12.294648   0.000000
   25       13.061453   0.000000
 
  0.2222222E+00  0.2222222E+00  0.0000000E+00  0.1851852E-02
    1      -24.215275   1.000000
    2      -23.964074   1.000000
    3      -12.532844   1.000000
    4      -12.425191   1.000000
    5      -12.258332   1.000000
    6      -12.215617   1.000000
    7      -12.098055   1.000000
    8      -12.060867   1.000000
    9      -12.010030   1.000000
   10      -11.961022   1.000000
   11      -11.829119   1.000000
   12      -11.555090   1.000000
   13       -8.025016   1.000000
   14       -7.670378   1.000000
   15       -7.224826   1.000000
   16       -6.683842   1.000000
   17       -5.597377   1.000000
   18       -5.477227   1.000000
   19        5.109134   0.000000
   20        7.727628   0.000000
   21        8.914081   0.000000
   22        8.975709   0.000000
   23       11.450980   0.000000
   24       12.075345   0.000000
   25       12.227765   0.000000
 
  0.2777778E+00  0.2222222E+00  0.0000000E+00  0.3703704E-02
    1      -24.146400   1.000000
    2      -23.960726   1.000000
    3      -12.541051   1.000000
    4      -12.390654   1.000000
    5      -12.229173   1.000000
    6      -12.148468   1.000000
    7      -12.070430   1.000000
    8      -12.030386   1.000000
    9      -11.992663   1.000000
   10      -11.955911   1.000000
   11      -11.791126   1.000000
   12      -11.553078   1.000000
   13       -8.087939   1.000000
   14       -7.863853   1.000000
   15       -7.075162   1.000000
   16       -6.993805   1.000000
   17       -5.785918   1.000000
   18       -5.692046   1.000000
   19        5.878153   0.000000
   20        7.698065   0.000000
   21        8.554410   0.000000
   22        8.944375   0.000000
   23       11.443522   0.000000
   24       11.864017   0.000000
   25       12.204747   0.000000
 
  0.3333333E+00  0.2222222E+00  0.0000000E+00  0.3703704E-02
    1      -24.092534   1.000000
    2      -23.968010   1.000000
    3      -12.547366   1.000000
    4      -12.369191   1.000000
    5      -12.206792   1.000000
    6      -12.112727   1.000000
    7      -12.069728   1.000000
    8      -12.027379   1.000000
    9      -11.952061   1.000000
   10      -11.941363   1.000000
   11      -11.724981   1.000000
   12      -11.575640   1.000000
   13       -8.268469   1.000000
   14       -7.829155   1.000000
   15       -7.307732   1.000000
   16       -6.828102   1.000000
   17       -5.945356   1.000000
   18       -5.868361   1.000000
   19        6.612227   0.000000
   20        7.670387   0.000000
   21        8.082935   0.000000
   22        8.844842   0.000000
   23       11.184457   0.000000
   24       11.795523   0.000000
   25       12.811312   0.000000
 
  0.3888889E+00  0.2222222E+00  0.0000000E+00  0.1851852E-02
    1      -24.069809   1.000000
    2      -23.974996   1.000000
    3      -12.549683   1.000000
    4      -12.362201   1.000000
    5      -12.197995   1.000000
    6      -12.101534   1.000000
    7      -12.070453   1.000000
    8      -12.029039   1.000000
    9      -11.950000   1.000000
   10      -11.923127   1.000000
   11      -11.666732   1.000000
   12      -11.611886   1.000000
   13       -8.344196   1.000000