       N       E                     dE             d eps       ncg     rms          rms(c)
DAV:   1    -0.749508527069E+03   -0.74951E+03   -0.17380E+04 11180   0.193E+03
DAV:   2    -0.993768141669E+03   -0.24426E+03   -0.23364E+03 11860   0.384E+02
DAV:   3    -0.101355449507E+04   -0.19786E+02   -0.19687E+02 12760   0.112E+02
DAV:   4    -0.101375555769E+04   -0.20106E+00   -0.20100E+00 11680   0.121E+01
DAV:   5    -0.114304734126E+04   -0.12929E+03   -0.12102E+01 13505   0.320E+01    0.334E+01
DAV:   6    -0.112510879290E+04    0.17939E+02   -0.10892E+01 11600   0.266E+01    0.150E+01
DAV:   7    -0.112554050976E+04   -0.43172E+00   -0.69423E+00 11925   0.236E+01    0.604E+00
DAV:   8    -0.112580549634E+04   -0.26499E+00   -0.38987E-01 14575   0.962E+00    0.316E+00
DAV:   9    -0.112577868616E+04    0.26810E-01   -0.85445E-02 15720   0.458E+00    0.142E+00
DAV:  10    -0.112577945043E+04   -0.76427E-03   -0.34348E-02 11740   0.141E+00    0.753E-01
DAV:  11    -0.112577985075E+04   -0.40032E-03   -0.16434E-03 11705   0.672E-01    0.519E-01
DAV:  12    -0.112578032754E+04   -0.47679E-03   -0.98655E-04 12315   0.286E-01    0.337E-01
DAV:  13    -0.112578073358E+04   -0.40604E-03   -0.28879E-04 11450   0.152E-01    0.200E-01
DAV:  14    -0.112578091609E+04   -0.18251E-03   -0.47145E-05 11315   0.779E-02    0.118E-01
DAV:  15    -0.112578101112E+04   -0.95030E-04   -0.25663E-05 11355   0.484E-02    0.703E-02
DAV:  16    -0.112578106465E+04   -0.53535E-04   -0.86140E-06 11365   0.271E-02    0.437E-02
DAV:  17    -0.112578109416E+04   -0.29504E-04   -0.34596E-06 11420   0.170E-02    0.269E-02
DAV:  18    -0.112578111077E+04   -0.16612E-04   -0.14610E-06  9155   0.112E-02    0.165E-02
DAV:  19    -0.112578112030E+04   -0.95352E-05   -0.66486E-07  9080   0.806E-03    0.101E-02
DAV:  20    -0.112578112580E+04   -0.54906E-05   -0.26176E-07  7765   0.512E-03    0.616E-03
DAV:  21    -0.112578112900E+04   -0.32065E-05   -0.11031E-07  5585   0.333E-03    0.382E-03
DAV:  22    -0.112578113088E+04   -0.18738E-05   -0.46599E-08  5595   0.222E-03    0.236E-03
DAV:  23    -0.112578113200E+04   -0.11240E-05   -0.20144E-08  5595   0.146E-03    0.148E-03
DAV:  24    -0.112578113267E+04   -0.66713E-06   -0.80859E-09  5570   0.944E-04
   1 F= -.11257811E+04 E0= -.11257811E+04  d E =0.000000E+00
