 vasp.5.4.4.18Apr17-6-g9f103f2a35 (build Sep 05 2023 16:06:33) complex          
  
 executed on             LinuxIFC date 2023.11.30  12:04:23
 running on   40 total cores
 distrk:  each k-point on   20 cores,    2 groups
 distr:  one band on NCORES_PER_BAND=   4 cores,    5 groups


--------------------------------------------------------------------------------------------------------


 INCAR:
 POTCAR:    PAW_PBE Zn 06Sep2000                  
 POTCAR:    PAW_PBE O 08Apr2002                   

 ----------------------------------------------------------------------------- 
|                                                                             |
|           W    W    AA    RRRRR   N    N  II  N    N   GGGG   !!!           |
|           W    W   A  A   R    R  NN   N  II  NN   N  G    G  !!!           |
|           W    W  A    A  R    R  N N  N  II  N N  N  G       !!!           |
|           W WW W  AAAAAA  RRRRR   N  N N  II  N  N N  G  GGG   !            |
|           WW  WW  A    A  R   R   N   NN  II  N   NN  G    G                |
|           W    W  A    A  R    R  N    N  II  N    N   GGGG   !!!           |
|                                                                             |
|      You have enabled k-point parallelism (KPAR>1).                         |
|      This developmental code was originally  written by Paul Kent at ORNL,  |
|      and carefully double checked in Vienna.                                |
|      GW as well as linear response parallelism added by Martijn Marsman     |
|      and Georg Kresse.                                                      |
|      Carefully verify results versus KPAR=1.                                |
|      Report problems to Paul Kent and Vienna.                               |
|                                                                             |
 ----------------------------------------------------------------------------- 

 POTCAR:    PAW_PBE Zn 06Sep2000                  
  local pseudopotential read in
  partial core-charges read in
  partial kinetic energy density read in
  atomic valenz-charges read in
  non local Contribution for L=           2  read in
    real space projection operators read in
  non local Contribution for L=           2  read in
    real space projection operators read in
  non local Contribution for L=           0  read in
    real space projection operators read in
  non local Contribution for L=           0  read in
    real space projection operators read in
  non local Contribution for L=           1  read in
    real space projection operators read in
  non local Contribution for L=           1  read in
    real space projection operators read in
    PAW grid and wavefunctions read in
 
   number of l-projection  operators is LMAX  =           6
   number of lm-projection operators is LMMAX =          18
 
 POTCAR:    PAW_PBE O 08Apr2002                   
  local pseudopotential read in
  partial core-charges read in
  partial kinetic energy density read in
  kinetic energy density of atom read in
  atomic valenz-charges read in
  non local Contribution for L=           0  read in
    real space projection operators read in
  non local Contribution for L=           0  read in
    real space projection operators read in
  non local Contribution for L=           1  read in
    real space projection operators read in
  non local Contribution for L=           1  read in
    real space projection operators read in
    PAW grid and wavefunctions read in
 
   number of l-projection  operators is LMAX  =           4
   number of lm-projection operators is LMMAX =           8
 
  PAW_PBE Zn 06Sep2000                  :
 energy of atom  1       EATOM=-1748.8345
 kinetic energy error for atom=    0.0107 (will be added to EATOM!!)
  PAW_PBE O 08Apr2002                   :
 energy of atom  2       EATOM= -432.3788
 kinetic energy error for atom=    0.1156 (will be added to EATOM!!)
 
 
 POSCAR: Zn2 O2                                  
  positions in direct lattice
  No initial velocities read in

 METAGGA = SCAN     LMAXTAU =  0    LMIXTAU =  F

 exchange correlation table for  LEXCH =        8
   RHO(1)=    0.500       N(1)  =     2000
   RHO(2)=  100.500       N(2)  =     4000
 


--------------------------------------------------------------------------------------------------------


 ion  position               nearest neighbor table
   1  0.667  0.333  0.501-   4 1.97   4 1.97   4 1.97   3 1.98
   2  0.333  0.667  0.001-   3 1.97   3 1.97   3 1.97   4 1.98
   3  0.667  0.333  0.880-   2 1.97   2 1.97   2 1.97   1 1.98
   4  0.333  0.667  0.380-   1 1.97   1 1.97   1 1.97   2 1.98
 
  LATTYP: Found a hexagonal cell.
 ALAT       =     3.2373509407
 C/A-ratio  =     1.6130661312
  
  Lattice vectors:
  
 A1 = (   3.2373509407,   0.0000000000,   0.0000000000)
 A2 = (  -1.6186754704,   2.8036281556,   0.0000000000)
 A3 = (   0.0000000000,   0.0000000000,   5.2220611572)


Analysis of symmetry for initial positions (statically):
=====================================================================
 Subroutine PRICEL returns:
 Original cell was already a primitive cell.
 

 Routine SETGRP: Setting up the symmetry group for a 
 hexagonal supercell.


 Subroutine GETGRP returns: Found 12 space group operations
 (whereof  6 operations were pure point group operations)
 out of a pool of 24 trial point group operations.


The static configuration has the point symmetry C_3v.
 The point group associated with its full space group is C_6v.


Analysis of symmetry for dynamics (positions and initial velocities):
=====================================================================
 Subroutine PRICEL returns:
 Original cell was already a primitive cell.
 

 Routine SETGRP: Setting up the symmetry group for a 
 hexagonal supercell.


 Subroutine GETGRP returns: Found 12 space group operations
 (whereof  6 operations were pure point group operations)
 out of a pool of 24 trial point group operations.


The dynamic configuration has the point symmetry C_3v.
 The point group associated with its full space group is C_6v.


 Subroutine INISYM returns: Found 12 space group operations
 (whereof  6 operations are pure point group operations),
 and found     1 'primitive' translations

 
 
 KPOINTS: Automatic mesh                          

Automatic generation of k-mesh.
Space group operators:
 irot       det(A)        alpha          n_x          n_y          n_z        tau_x        tau_y        tau_z
    1     1.000000     0.000000     1.000000     0.000000     0.000000     0.000000     0.000000     0.000000
    2     1.000000   120.000000     0.000000     0.000000    -1.000000     0.000000     0.000000     0.000000
    3     1.000000   120.000000     0.000000     0.000000     1.000000     0.000000     0.000000     0.000000
    4    -1.000000   180.000000     1.000000     0.000000     0.000000     0.000000     0.000000     0.000000
    5    -1.000000   180.000000     0.500000    -0.866025     0.000000     0.000000     0.000000     0.000000
    6    -1.000000   180.000000    -0.500000    -0.866025     0.000000     0.000000     0.000000     0.000000
    7     1.000000    60.000000     0.000000     0.000000    -1.000000     0.000000     0.000000     0.500000
    8     1.000000   180.000000     0.000000     0.000000     1.000000     0.000000     0.000000     0.500000
    9     1.000000    60.000000     0.000000     0.000000     1.000000     0.000000     0.000000     0.500000
   10    -1.000000   180.000000     0.866025    -0.500000     0.000000     0.000000     0.000000     0.500000
   11    -1.000000   180.000000     0.000000     1.000000     0.000000     0.000000     0.000000     0.500000
   12    -1.000000   180.000000     0.866025     0.500000     0.000000     0.000000     0.000000     0.500000
 
 Subroutine IBZKPT returns following result:
 ===========================================
 
 Found    222 irreducible k-points:
 
 Following reciprocal coordinates:
            Coordinates               Weight
  0.000000  0.000000  0.000000      1.000000
  0.055556  0.000000  0.000000      6.000000
  0.111111  0.000000  0.000000      6.000000
  0.166667 -0.000000  0.000000      6.000000
  0.222222 -0.000000  0.000000      6.000000
  0.277778 -0.000000  0.000000      6.000000
  0.333333 -0.000000  0.000000      6.000000
  0.388889 -0.000000  0.000000      6.000000
  0.444444 -0.000000  0.000000      6.000000
  0.500000 -0.000000  0.000000      3.000000
  0.055556  0.055556  0.000000      6.000000
  0.111111  0.055556  0.000000     12.000000
  0.166667  0.055556  0.000000     12.000000
  0.222222  0.055556  0.000000     12.000000
  0.277778  0.055556  0.000000     12.000000
  0.333333  0.055556  0.000000     12.000000
  0.388889  0.055556  0.000000     12.000000
  0.444444  0.055556  0.000000     12.000000
  0.111111  0.111111  0.000000      6.000000
  0.166667  0.111111  0.000000     12.000000
  0.222222  0.111111  0.000000     12.000000
  0.277778  0.111111  0.000000     12.000000
  0.333333  0.111111  0.000000     12.000000
  0.388889  0.111111  0.000000     12.000000
  0.444444  0.111111  0.000000      6.000000
  0.166667  0.166667  0.000000      6.000000
  0.222222  0.166667  0.000000     12.000000
  0.277778  0.166667  0.000000     12.000000
  0.333333  0.166667  0.000000     12.000000
  0.388889  0.166667  0.000000     12.000000
  0.222222  0.222222  0.000000      6.000000
  0.277778  0.222222  0.000000     12.000000
  0.333333  0.222222  0.000000     12.000000
  0.388889  0.222222  0.000000      6.000000
  0.277778  0.277778  0.000000      6.000000
  0.333333  0.277778  0.000000     12.000000
  0.333333  0.333333  0.000000      2.000000
  0.000000  0.000000  0.100000      2.000000
  0.055556  0.000000  0.100000     12.000000
  0.111111  0.000000  0.100000     12.000000
  0.166667 -0.000000  0.100000     12.000000
  0.222222 -0.000000  0.100000     12.000000
  0.277778 -0.000000  0.100000     12.000000
  0.333333 -0.000000  0.100000     12.000000
  0.388889 -0.000000  0.100000     12.000000
  0.444444 -0.000000  0.100000     12.000000
  0.500000 -0.000000  0.100000      6.000000
  0.055556  0.055556  0.100000     12.000000
  0.111111  0.055556  0.100000     24.000000
  0.166667  0.055556  0.100000     24.000000
  0.222222  0.055556  0.100000     24.000000
  0.277778  0.055556  0.100000     24.000000
  0.333333  0.055556  0.100000     24.000000
  0.388889  0.055556  0.100000     24.000000
  0.444444  0.055556  0.100000     24.000000
  0.111111  0.111111  0.100000     12.000000
  0.166667  0.111111  0.100000     24.000000
  0.222222  0.111111  0.100000     24.000000
  0.277778  0.111111  0.100000     24.000000
  0.333333  0.111111  0.100000     24.000000
  0.388889  0.111111  0.100000     24.000000
  0.444444  0.111111  0.100000     12.000000
  0.166667  0.166667  0.100000     12.000000
  0.222222  0.166667  0.100000     24.000000
  0.277778  0.166667  0.100000     24.000000
  0.333333  0.166667  0.100000     24.000000
  0.388889  0.166667  0.100000     24.000000
  0.222222  0.222222  0.100000     12.000000
  0.277778  0.222222  0.100000     24.000000
  0.333333  0.222222  0.100000     24.000000
  0.388889  0.222222  0.100000     12.000000
  0.277778  0.277778  0.100000     12.000000
  0.333333  0.277778  0.100000     24.000000
  0.333333  0.333333  0.100000      4.000000
  0.000000  0.000000  0.200000      2.000000
  0.055556  0.000000  0.200000     12.000000
  0.111111  0.000000  0.200000     12.000000
  0.166667 -0.000000  0.200000     12.000000
  0.222222 -0.000000  0.200000     12.000000
  0.277778 -0.000000  0.200000     12.000000
  0.333333 -0.000000  0.200000     12.000000
  0.388889 -0.000000  0.200000     12.000000
  0.444444 -0.000000  0.200000     12.000000
  0.500000 -0.000000  0.200000      6.000000
  0.055556  0.055556  0.200000     12.000000
  0.111111  0.055556  0.200000     24.000000
  0.166667  0.055556  0.200000     24.000000
  0.222222  0.055556  0.200000     24.000000
  0.277778  0.055556  0.200000     24.000000
  0.333333  0.055556  0.200000     24.000000
  0.388889  0.055556  0.200000     24.000000
  0.444444  0.055556  0.200000     24.000000
  0.111111  0.111111  0.200000     12.000000
  0.166667  0.111111  0.200000     24.000000
  0.222222  0.111111  0.200000     24.000000
  0.277778  0.111111  0.200000     24.000000
  0.333333  0.111111  0.200000     24.000000
  0.388889  0.111111  0.200000     24.000000
  0.444444  0.111111  0.200000     12.000000
  0.166667  0.166667  0.200000     12.000000
  0.222222  0.166667  0.200000     24.000000
  0.277778  0.166667  0.200000     24.000000
  0.333333  0.166667  0.200000     24.000000
  0.388889  0.166667  0.200000     24.000000
  0.222222  0.222222  0.200000     12.000000
  0.277778  0.222222  0.200000     24.000000
  0.333333  0.222222  0.200000     24.000000
  0.388889  0.222222  0.200000     12.000000
  0.277778  0.277778  0.200000     12.000000
  0.333333  0.277778  0.200000     24.000000
  0.333333  0.333333  0.200000      4.000000
  0.000000  0.000000  0.300000      2.000000
  0.055556  0.000000  0.300000     12.000000
  0.111111  0.000000  0.300000     12.000000
  0.166667 -0.000000  0.300000     12.000000
  0.222222 -0.000000  0.300000     12.000000
  0.277778 -0.000000  0.300000     12.000000
  0.333333 -0.000000  0.300000     12.000000
  0.388889 -0.000000  0.300000     12.000000
  0.444444 -0.000000  0.300000     12.000000
  0.500000 -0.000000  0.300000      6.000000
  0.055556  0.055556  0.300000     12.000000
  0.111111  0.055556  0.300000     24.000000
  0.166667  0.055556  0.300000     24.000000
  0.222222  0.055556  0.300000     24.000000
  0.277778  0.055556  0.300000     24.000000
  0.333333  0.055556  0.300000     24.000000
  0.388889  0.055556  0.300000     24.000000
  0.444444  0.055556  0.300000     24.000000
  0.111111  0.111111  0.300000     12.000000
  0.166667  0.111111  0.300000     24.000000
  0.222222  0.111111  0.300000     24.000000
  0.277778  0.111111  0.300000     24.000000
  0.333333  0.111111  0.300000     24.000000
  0.388889  0.111111  0.300000     24.000000
  0.444444  0.111111  0.300000     12.000000
  0.166667  0.166667  0.300000     12.000000
  0.222222  0.166667  0.300000     24.000000
  0.277778  0.166667  0.300000     24.000000
  0.333333  0.166667  0.300000     24.000000
  0.388889  0.166667  0.300000     24.000000
  0.222222  0.222222  0.300000     12.000000
  0.277778  0.222222  0.300000     24.000000
  0.333333  0.222222  0.300000     24.000000
  0.388889  0.222222  0.300000     12.000000
  0.277778  0.277778  0.300000     12.000000
  0.333333  0.277778  0.300000     24.000000
  0.333333  0.333333  0.300000      4.000000
  0.000000  0.000000  0.400000      2.000000
  0.055556  0.000000  0.400000     12.000000
  0.111111  0.000000  0.400000     12.000000
  0.166667 -0.000000  0.400000     12.000000
  0.222222 -0.000000  0.400000     12.000000
  0.277778 -0.000000  0.400000     12.000000
  0.333333 -0.000000  0.400000     12.000000
  0.388889 -0.000000  0.400000     12.000000
  0.444444 -0.000000  0.400000     12.000000
  0.500000 -0.000000  0.400000      6.000000
  0.055556  0.055556  0.400000     12.000000
  0.111111  0.055556  0.400000     24.000000
  0.166667  0.055556  0.400000     24.000000
  0.222222  0.055556  0.400000     24.000000
  0.277778  0.055556  0.400000     24.000000
  0.333333  0.055556  0.400000     24.000000
  0.388889  0.055556  0.400000     24.000000
  0.444444  0.055556  0.400000     24.000000
  0.111111  0.111111  0.400000     12.000000
  0.166667  0.111111  0.400000     24.000000
  0.222222  0.111111  0.400000     24.000000
  0.277778  0.111111  0.400000     24.000000
  0.333333  0.111111  0.400000     24.000000
  0.388889  0.111111  0.400000     24.000000
  0.444444  0.111111  0.400000     12.000000
  0.166667  0.166667  0.400000     12.000000
  0.222222  0.166667  0.400000     24.000000
  0.277778  0.166667  0.400000     24.000000
  0.333333  0.166667  0.400000     24.000000
  0.388889  0.166667  0.400000     24.000000
  0.222222  0.222222  0.400000     12.000000
  0.277778  0.222222  0.400000     24.000000
  0.333333  0.222222  0.400000     24.000000
  0.388889  0.222222  0.400000     12.000000
  0.277778  0.277778  0.400000     12.000000
  0.333333  0.277778  0.400000     24.000000
  0.333333  0.333333  0.400000      4.000000
  0.000000  0.000000  0.500000      1.000000
  0.055556  0.000000  0.500000      6.000000
  0.111111  0.000000  0.500000      6.000000
  0.166667 -0.000000  0.500000      6.000000
  0.222222 -0.000000  0.500000      6.000000
  0.277778 -0.000000  0.500000      6.000000
  0.333333 -0.000000  0.500000      6.000000
  0.388889 -0.000000  0.500000      6.000000
  0.444444 -0.000000  0.500000      6.000000
  0.500000 -0.000000  0.500000      3.000000
  0.055556  0.055556  0.500000      6.000000
  0.111111  0.055556  0.500000     12.000000
  0.166667  0.055556  0.500000     12.000000
  0.222222  0.055556  0.500000     12.000000
  0.277778  0.055556  0.500000     12.000000
  0.333333  0.055556  0.500000     12.000000
  0.388889  0.055556  0.500000     12.000000
  0.444444  0.055556  0.500000     12.000000
  0.111111  0.111111  0.500000      6.000000
  0.166667  0.111111  0.500000     12.000000
  0.222222  0.111111  0.500000     12.000000
  0.277778  0.111111  0.500000     12.000000
  0.333333  0.111111  0.500000     12.000000
  0.388889  0.111111  0.500000     12.000000
  0.444444  0.111111  0.500000      6.000000
  0.166667  0.166667  0.500000      6.000000
  0.222222  0.166667  0.500000     12.000000
  0.277778  0.166667  0.500000     12.000000
  0.333333  0.166667  0.500000     12.000000
  0.388889  0.166667  0.500000     12.000000
  0.222222  0.222222  0.500000      6.000000
  0.277778  0.222222  0.500000     12.000000
  0.333333  0.222222  0.500000     12.000000
  0.388889  0.222222  0.500000      6.000000
  0.277778  0.277778  0.500000      6.000000
  0.333333  0.277778  0.500000     12.000000
  0.333333  0.333333  0.500000      2.000000
 
 Following cartesian coordinates:
            Coordinates               Weight
  0.000000  0.000000  0.000000      1.000000
  0.017161  0.009908  0.000000      6.000000
  0.034322  0.019816  0.000000      6.000000
  0.051482  0.029723  0.000000      6.000000
  0.068643  0.039631  0.000000      6.000000
  0.085804  0.049539  0.000000      6.000000
  0.102965  0.059447  0.000000      6.000000
  0.120126  0.069355  0.000000      6.000000
  0.137286  0.079262  0.000000      6.000000
  0.154447  0.089170  0.000000      3.000000
  0.017161  0.029723  0.000000      6.000000
  0.034322  0.039631  0.000000     12.000000
  0.051482  0.049539  0.000000     12.000000
  0.068643  0.059447  0.000000     12.000000
  0.085804  0.069355  0.000000     12.000000
  0.102965  0.079262  0.000000     12.000000
  0.120126  0.089170  0.000000     12.000000
  0.137286  0.099078  0.000000     12.000000
  0.034322  0.059447  0.000000      6.000000
  0.051482  0.069355  0.000000     12.000000
  0.068643  0.079262  0.000000     12.000000
  0.085804  0.089170  0.000000     12.000000
  0.102965  0.099078  0.000000     12.000000
  0.120126  0.108986  0.000000     12.000000
  0.137286  0.118894  0.000000      6.000000
  0.051482  0.089170  0.000000      6.000000
  0.068643  0.099078  0.000000     12.000000
  0.085804  0.108986  0.000000     12.000000
  0.102965  0.118894  0.000000     12.000000
  0.120126  0.128801  0.000000     12.000000
  0.068643  0.118894  0.000000      6.000000
  0.085804  0.128801  0.000000     12.000000
  0.102965  0.138709  0.000000     12.000000
  0.120126  0.148617  0.000000      6.000000
  0.085804  0.148617  0.000000      6.000000
  0.102965  0.158525  0.000000     12.000000
  0.102965  0.178340  0.000000      2.000000
  0.000000  0.000000  0.019150      2.000000
  0.017161  0.009908  0.019150     12.000000
  0.034322  0.019816  0.019150     12.000000
  0.051482  0.029723  0.019150     12.000000
  0.068643  0.039631  0.019150     12.000000
  0.085804  0.049539  0.019150     12.000000
  0.102965  0.059447  0.019150     12.000000
  0.120126  0.069355  0.019150     12.000000
  0.137286  0.079262  0.019150     12.000000
  0.154447  0.089170  0.019150      6.000000
  0.017161  0.029723  0.019150     12.000000
  0.034322  0.039631  0.019150     24.000000
  0.051482  0.049539  0.019150     24.000000
  0.068643  0.059447  0.019150     24.000000
  0.085804  0.069355  0.019150     24.000000
  0.102965  0.079262  0.019150     24.000000
  0.120126  0.089170  0.019150     24.000000
  0.137286  0.099078  0.019150     24.000000
  0.034322  0.059447  0.019150     12.000000
  0.051482  0.069355  0.019150     24.000000
  0.068643  0.079262  0.019150     24.000000
  0.085804  0.089170  0.019150     24.000000
  0.102965  0.099078  0.019150     24.000000
  0.120126  0.108986  0.019150     24.000000
  0.137286  0.118894  0.019150     12.000000
  0.051482  0.089170  0.019150     12.000000
  0.068643  0.099078  0.019150     24.000000
  0.085804  0.108986  0.019150     24.000000
  0.102965  0.118894  0.019150     24.000000
  0.120126  0.128801  0.019150     24.000000
  0.068643  0.118894  0.019150     12.000000
  0.085804  0.128801  0.019150     24.000000
  0.102965  0.138709  0.019150     24.000000
  0.120126  0.148617  0.019150     12.000000
  0.085804  0.148617  0.019150     12.000000
  0.102965  0.158525  0.019150     24.000000
  0.102965  0.178340  0.019150      4.000000
  0.000000  0.000000  0.038299      2.000000
  0.017161  0.009908  0.038299     12.000000
  0.034322  0.019816  0.038299     12.000000
  0.051482  0.029723  0.038299     12.000000
  0.068643  0.039631  0.038299     12.000000
  0.085804  0.049539  0.038299     12.000000
  0.102965  0.059447  0.038299     12.000000
  0.120126  0.069355  0.038299     12.000000
  0.137286  0.079262  0.038299     12.000000
  0.154447  0.089170  0.038299      6.000000
  0.017161  0.029723  0.038299     12.000000
  0.034322  0.039631  0.038299     24.000000
  0.051482  0.049539  0.038299     24.000000
  0.068643  0.059447  0.038299     24.000000
  0.085804  0.069355  0.038299     24.000000
  0.102965  0.079262  0.038299     24.000000
  0.120126  0.089170  0.038299     24.000000
  0.137286  0.099078  0.038299     24.000000
  0.034322  0.059447  0.038299     12.000000
  0.051482  0.069355  0.038299     24.000000
  0.068643  0.079262  0.038299     24.000000
  0.085804  0.089170  0.038299     24.000000
  0.102965  0.099078  0.038299     24.000000
  0.120126  0.108986  0.038299     24.000000
  0.137286  0.118894  0.038299     12.000000
  0.051482  0.089170  0.038299     12.000000
  0.068643  0.099078  0.038299     24.000000
  0.085804  0.108986  0.038299     24.000000
  0.102965  0.118894  0.038299     24.000000
  0.120126  0.128801  0.038299     24.000000
  0.068643  0.118894  0.038299     12.000000
  0.085804  0.128801  0.038299     24.000000
  0.102965  0.138709  0.038299     24.000000
  0.120126  0.148617  0.038299     12.000000
  0.085804  0.148617  0.038299     12.000000
  0.102965  0.158525  0.038299     24.000000
  0.102965  0.178340  0.038299      4.000000
  0.000000  0.000000  0.057449      2.000000
  0.017161  0.009908  0.057449     12.000000
  0.034322  0.019816  0.057449     12.000000
  0.051482  0.029723  0.057449     12.000000
  0.068643  0.039631  0.057449     12.000000
  0.085804  0.049539  0.057449     12.000000
  0.102965  0.059447  0.057449     12.000000
  0.120126  0.069355  0.057449     12.000000
  0.137286  0.079262  0.057449     12.000000
  0.154447  0.089170  0.057449      6.000000
  0.017161  0.029723  0.057449     12.000000
  0.034322  0.039631  0.057449     24.000000
  0.051482  0.049539  0.057449     24.000000
  0.068643  0.059447  0.057449     24.000000
  0.085804  0.069355  0.057449     24.000000
  0.102965  0.079262  0.057449     24.000000
  0.120126  0.089170  0.057449     24.000000
  0.137286  0.099078  0.057449     24.000000
  0.034322  0.059447  0.057449     12.000000
  0.051482  0.069355  0.057449     24.000000
  0.068643  0.079262  0.057449     24.000000
  0.085804  0.089170  0.057449     24.000000
  0.102965  0.099078  0.057449     24.000000
  0.120126  0.108986  0.057449     24.000000
  0.137286  0.118894  0.057449     12.000000
  0.051482  0.089170  0.057449     12.000000
  0.068643  0.099078  0.057449     24.000000
  0.085804  0.108986  0.057449     24.000000
  0.102965  0.118894  0.057449     24.000000
  0.120126  0.128801  0.057449     24.000000
  0.068643  0.118894  0.057449     12.000000
  0.085804  0.128801  0.057449     24.000000
  0.102965  0.138709  0.057449     24.000000
  0.120126  0.148617  0.057449     12.000000
  0.085804  0.148617  0.057449     12.000000
  0.102965  0.158525  0.057449     24.000000
  0.102965  0.178340  0.057449      4.000000
  0.000000  0.000000  0.076598      2.000000
  0.017161  0.009908  0.076598     12.000000
  0.034322  0.019816  0.076598     12.000000
  0.051482  0.029723  0.076598     12.000000
  0.068643  0.039631  0.076598     12.000000
  0.085804  0.049539  0.076598     12.000000
  0.102965  0.059447  0.076598     12.000000
  0.120126  0.069355  0.076598     12.000000
  0.137286  0.079262  0.076598     12.000000
  0.154447  0.089170  0.076598      6.000000
  0.017161  0.029723  0.076598     12.000000
  0.034322  0.039631  0.076598     24.000000
  0.051482  0.049539  0.076598     24.000000
  0.068643  0.059447  0.076598     24.000000
  0.085804  0.069355  0.076598     24.000000
  0.102965  0.079262  0.076598     24.000000
  0.120126  0.089170  0.076598     24.000000
  0.137286  0.099078  0.076598     24.000000
  0.034322  0.059447  0.076598     12.000000
  0.051482  0.069355  0.076598     24.000000
  0.068643  0.079262  0.076598     24.000000
  0.085804  0.089170  0.076598     24.000000
  0.102965  0.099078  0.076598     24.000000
  0.120126  0.108986  0.076598     24.000000
  0.137286  0.118894  0.076598     12.000000
  0.051482  0.089170  0.076598     12.000000
  0.068643  0.099078  0.076598     24.000000
  0.085804  0.108986  0.076598     24.000000
  0.102965  0.118894  0.076598     24.000000
  0.120126  0.128801  0.076598     24.000000
  0.068643  0.118894  0.076598     12.000000
  0.085804  0.128801  0.076598     24.000000
  0.102965  0.138709  0.076598     24.000000
  0.120126  0.148617  0.076598     12.000000
  0.085804  0.148617  0.076598     12.000000
  0.102965  0.158525  0.076598     24.000000
  0.102965  0.178340  0.076598      4.000000
  0.000000  0.000000  0.095748      1.000000
  0.017161  0.009908  0.095748      6.000000
  0.034322  0.019816  0.095748      6.000000
  0.051482  0.029723  0.095748      6.000000
  0.068643  0.039631  0.095748      6.000000
  0.085804  0.049539  0.095748      6.000000
  0.102965  0.059447  0.095748      6.000000
  0.120126  0.069355  0.095748      6.000000
  0.137286  0.079262  0.095748      6.000000
  0.154447  0.089170  0.095748      3.000000
  0.017161  0.029723  0.095748      6.000000
  0.034322  0.039631  0.095748     12.000000
  0.051482  0.049539  0.095748     12.000000
  0.068643  0.059447  0.095748     12.000000
  0.085804  0.069355  0.095748     12.000000
  0.102965  0.079262  0.095748     12.000000
  0.120126  0.089170  0.095748     12.000000
  0.137286  0.099078  0.095748     12.000000
  0.034322  0.059447  0.095748      6.000000
  0.051482  0.069355  0.095748     12.000000
  0.068643  0.079262  0.095748     12.000000
  0.085804  0.089170  0.095748     12.000000
  0.102965  0.099078  0.095748     12.000000
  0.120126  0.108986  0.095748     12.000000
  0.137286  0.118894  0.095748      6.000000
  0.051482  0.089170  0.095748      6.000000
  0.068643  0.099078  0.095748     12.000000
  0.085804  0.108986  0.095748     12.000000
  0.102965  0.118894  0.095748     12.000000
  0.120126  0.128801  0.095748     12.000000
  0.068643  0.118894  0.095748      6.000000
  0.085804  0.128801  0.095748     12.000000
  0.102965  0.138709  0.095748     12.000000
  0.120126  0.148617  0.095748      6.000000
  0.085804  0.148617  0.095748      6.000000
  0.102965  0.158525  0.095748     12.000000
  0.102965  0.178340  0.095748      2.000000
 
 TETIRR: Found   3295 inequivalent tetrahedra from    19440
 
 Subroutine IBZKPT_HF returns following result:
 ==============================================
 
 Found   3240 k-points in 1st BZ
 the following   3240 k-points will be used (e.g. in the exchange kernel)
 Following reciprocal coordinates:   # in IRBZ
  0.000000  0.000000  0.000000    0.00030864   1 t-inv F
  0.055556  0.000000  0.000000    0.00030864   2 t-inv F
  0.111111  0.000000  0.000000    0.00030864   3 t-inv F
  0.166667 -0.000000  0.000000    0.00030864   4 t-inv F
  0.222222 -0.000000  0.000000    0.00030864   5 t-inv F
  0.277778 -0.000000  0.000000    0.00030864   6 t-inv F
  0.333333 -0.000000  0.000000    0.00030864   7 t-inv F
  0.388889 -0.000000  0.000000    0.00030864   8 t-inv F
  0.444444 -0.000000  0.000000    0.00030864   9 t-inv F
  0.500000 -0.000000  0.000000    0.00030864  10 t-inv F
  0.055556  0.055556  0.000000    0.00030864  11 t-inv F
  0.111111  0.055556  0.000000    0.00030864  12 t-inv F
  0.166667  0.055556  0.000000    0.00030864  13 t-inv F
  0.222222  0.055556  0.000000    0.00030864  14 t-inv F
  0.277778  0.055556  0.000000    0.00030864  15 t-inv F
  0.333333  0.055556  0.000000    0.00030864  16 t-inv F
  0.388889  0.055556  0.000000    0.00030864  17 t-inv F
  0.444444  0.055556  0.000000    0.00030864  18 t-inv F
  0.111111  0.111111  0.000000    0.00030864  19 t-inv F
  0.166667  0.111111  0.000000    0.00030864  20 t-inv F
  0.222222  0.111111  0.000000    0.00030864  21 t-inv F
  0.277778  0.111111  0.000000    0.00030864  22 t-inv F
  0.333333  0.111111  0.000000    0.00030864  23 t-inv F
  0.388889  0.111111  0.000000    0.00030864  24 t-inv F
  0.444444  0.111111  0.000000    0.00030864  25 t-inv F
  0.166667  0.166667  0.000000    0.00030864  26 t-inv F
  0.222222  0.166667  0.000000    0.00030864  27 t-inv F
  0.277778  0.166667  0.000000    0.00030864  28 t-inv F
  0.333333  0.166667  0.000000    0.00030864  29 t-inv F
  0.388889  0.166667  0.000000    0.00030864  30 t-inv F
  0.222222  0.222222  0.000000    0.00030864  31 t-inv F
  0.277778  0.222222  0.000000    0.00030864  32 t-inv F
  0.333333  0.222222  0.000000    0.00030864  33 t-inv F
  0.388889  0.222222  0.000000    0.00030864  34 t-inv F
  0.277778  0.277778  0.000000    0.00030864  35 t-inv F
  0.333333  0.277778  0.000000    0.00030864  36 t-inv F
  0.333333  0.333333  0.000000    0.00030864  37 t-inv F
  0.000000  0.000000  0.100000    0.00030864  38 t-inv F
  0.055556  0.000000  0.100000    0.00030864  39 t-inv F
  0.111111  0.000000  0.100000    0.00030864  40 t-inv F
  0.166667 -0.000000  0.100000    0.00030864  41 t-inv F
  0.222222 -0.000000  0.100000    0.00030864  42 t-inv F
  0.277778 -0.000000  0.100000    0.00030864  43 t-inv F
  0.333333 -0.000000  0.100000    0.00030864  44 t-inv F
  0.388889 -0.000000  0.100000    0.00030864  45 t-inv F
  0.444444 -0.000000  0.100000    0.00030864  46 t-inv F
  0.500000 -0.000000  0.100000    0.00030864  47 t-inv F
  0.055556  0.055556  0.100000    0.00030864  48 t-inv F
  0.111111  0.055556  0.100000    0.00030864  49 t-inv F
  0.166667  0.055556  0.100000    0.00030864  50 t-inv F
  0.222222  0.055556  0.100000    0.00030864  51 t-inv F
  0.277778  0.055556  0.100000    0.00030864  52 t-inv F
  0.333333  0.055556  0.100000    0.00030864  53 t-inv F
  0.388889  0.055556  0.100000    0.00030864  54 t-inv F
  0.444444  0.055556  0.100000    0.00030864  55 t-inv F
  0.111111  0.111111  0.100000    0.00030864  56 t-inv F
  0.166667  0.111111  0.100000    0.00030864  57 t-inv F
  0.222222  0.111111  0.100000    0.00030864  58 t-inv F
  0.277778  0.111111  0.100000    0.00030864  59 t-inv F
  0.333333  0.111111  0.100000    0.00030864  60 t-inv F
  0.388889  0.111111  0.100000    0.00030864  61 t-inv F
  0.444444  0.111111  0.100000    0.00030864  62 t-inv F
  0.166667  0.166667  0.100000    0.00030864  63 t-inv F
  0.222222  0.166667  0.100000    0.00030864  64 t-inv F
  0.277778  0.166667  0.100000    0.00030864  65 t-inv F
  0.333333  0.166667  0.100000    0.00030864  66 t-inv F
  0.388889  0.166667  0.100000    0.00030864  67 t-inv F
  0.222222  0.222222  0.100000    0.00030864  68 t-inv F
  0.277778  0.222222  0.100000    0.00030864  69 t-inv F
  0.333333  0.222222  0.100000    0.00030864  70 t-inv F
  0.388889  0.222222  0.100000    0.00030864  71 t-inv F
  0.277778  0.277778  0.100000    0.00030864  72 t-inv F
  0.333333  0.277778  0.100000    0.00030864  73 t-inv F
  0.333333  0.333333  0.100000    0.00030864  74 t-inv F
  0.000000  0.000000  0.200000    0.00030864  75 t-inv F
  0.055556  0.000000  0.200000    0.00030864  76 t-inv F
  0.111111  0.000000  0.200000    0.00030864  77 t-inv F
  0.166667 -0.000000  0.200000    0.00030864  78 t-inv F
  0.222222 -0.000000  0.200000    0.00030864  79 t-inv F
  0.277778 -0.000000  0.200000    0.00030864  80 t-inv F
  0.333333 -0.000000  0.200000    0.00030864  81 t-inv F
  0.388889 -0.000000  0.200000    0.00030864  82 t-inv F
  0.444444 -0.000000  0.200000    0.00030864  83 t-inv F
  0.500000 -0.000000  0.200000    0.00030864  84 t-inv F
  0.055556  0.055556  0.200000    0.00030864  85 t-inv F
  0.111111  0.055556  0.200000    0.00030864  86 t-inv F
  0.166667  0.055556  0.200000    0.00030864  87 t-inv F
  0.222222  0.055556  0.200000    0.00030864  88 t-inv F
  0.277778  0.055556  0.200000    0.00030864  89 t-inv F
  0.333333  0.055556  0.200000    0.00030864  90 t-inv F
  0.388889  0.055556  0.200000    0.00030864  91 t-inv F
  0.444444  0.055556  0.200000    0.00030864  92 t-inv F
  0.111111  0.111111  0.200000    0.00030864  93 t-inv F
  0.166667  0.111111  0.200000    0.00030864  94 t-inv F
  0.222222  0.111111  0.200000    0.00030864  95 t-inv F
  0.277778  0.111111  0.200000    0.00030864  96 t-inv F
  0.333333  0.111111  0.200000    0.00030864  97 t-inv F
  0.388889  0.111111  0.200000    0.00030864  98 t-inv F
  0.444444  0.111111  0.200000    0.00030864  99 t-inv F
  0.166667  0.166667  0.200000    0.00030864 100 t-inv F
  0.222222  0.166667  0.200000    0.00030864 101 t-inv F
  0.277778  0.166667  0.200000    0.00030864 102 t-inv F
  0.333333  0.166667  0.200000    0.00030864 103 t-inv F
  0.388889  0.166667  0.200000    0.00030864 104 t-inv F
  0.222222  0.222222  0.200000    0.00030864 105 t-inv F
  0.277778  0.222222  0.200000    0.00030864 106 t-inv F
  0.333333  0.222222  0.200000    0.00030864 107 t-inv F
  0.388889  0.222222  0.200000    0.00030864 108 t-inv F
  0.277778  0.277778  0.200000    0.00030864 109 t-inv F
  0.333333  0.277778  0.200000    0.00030864 110 t-inv F
  0.333333  0.333333  0.200000    0.00030864 111 t-inv F
  0.000000  0.000000  0.300000    0.00030864 112 t-inv F
  0.055556  0.000000  0.300000    0.00030864 113 t-inv F
  0.111111  0.000000  0.300000    0.00030864 114 t-inv F
  0.166667 -0.000000  0.300000    0.00030864 115 t-inv F
  0.222222 -0.000000  0.300000    0.00030864 116 t-inv F
  0.277778 -0.000000  0.300000    0.00030864 117 t-inv F
  0.333333 -0.000000  0.300000    0.00030864 118 t-inv F
  0.388889 -0.000000  0.300000    0.00030864 119 t-inv F
  0.444444 -0.000000  0.300000    0.00030864 120 t-inv F
  0.500000 -0.000000  0.300000    0.00030864 121 t-inv F
  0.055556  0.055556  0.300000    0.00030864 122 t-inv F
  0.111111  0.055556  0.300000    0.00030864 123 t-inv F
  0.166667  0.055556  0.300000    0.00030864 124 t-inv F
  0.222222  0.055556  0.300000    0.00030864 125 t-inv F
  0.277778  0.055556  0.300000    0.00030864 126 t-inv F
  0.333333  0.055556  0.300000    0.00030864 127 t-inv F
  0.388889  0.055556  0.300000    0.00030864 128 t-inv F
  0.444444  0.055556  0.300000    0.00030864 129 t-inv F
  0.111111  0.111111  0.300000    0.00030864 130 t-inv F
  0.166667  0.111111  0.300000    0.00030864 131 t-inv F
  0.222222  0.111111  0.300000    0.00030864 132 t-inv F
  0.277778  0.111111  0.300000    0.00030864 133 t-inv F
  0.333333  0.111111  0.300000    0.00030864 134 t-inv F
  0.388889  0.111111  0.300000    0.00030864 135 t-inv F
  0.444444  0.111111  0.300000    0.00030864 136 t-inv F
  0.166667  0.166667  0.300000    0.00030864 137 t-inv F
  0.222222  0.166667  0.300000    0.00030864 138 t-inv F
  0.277778  0.166667  0.300000    0.00030864 139 t-inv F
  0.333333  0.166667  0.300000    0.00030864 140 t-inv F
  0.388889  0.166667  0.300000    0.00030864 141 t-inv F
  0.222222  0.222222  0.300000    0.00030864 142 t-inv F
  0.277778  0.222222  0.300000    0.00030864 143 t-inv F
  0.333333  0.222222  0.300000    0.00030864 144 t-inv F
  0.388889  0.222222  0.300000    0.00030864 145 t-inv F
  0.277778  0.277778  0.300000    0.00030864 146 t-inv F
  0.333333  0.277778  0.300000    0.00030864 147 t-inv F
  0.333333  0.333333  0.300000    0.00030864 148 t-inv F
  0.000000  0.000000  0.400000    0.00030864 149 t-inv F
  0.055556  0.000000  0.400000    0.00030864 150 t-inv F
  0.111111  0.000000  0.400000    0.00030864 151 t-inv F
  0.166667 -0.000000  0.400000    0.00030864 152 t-inv F
  0.222222 -0.000000  0.400000    0.00030864 153 t-inv F
  0.277778 -0.000000  0.400000    0.00030864 154 t-inv F
  0.333333 -0.000000  0.400000    0.00030864 155 t-inv F
  0.388889 -0.000000  0.400000    0.00030864 156 t-inv F
  0.444444 -0.000000  0.400000    0.00030864 157 t-inv F
  0.500000 -0.000000  0.400000    0.00030864 158 t-inv F
  0.055556  0.055556  0.400000    0.00030864 159 t-inv F
  0.111111  0.055556  0.400000    0.00030864 160 t-inv F
  0.166667  0.055556  0.400000    0.00030864 161 t-inv F
  0.222222  0.055556  0.400000    0.00030864 162 t-inv F
  0.277778  0.055556  0.400000    0.00030864 163 t-inv F
  0.333333  0.055556  0.400000    0.00030864 164 t-inv F
  0.388889  0.055556  0.400000    0.00030864 165 t-inv F
  0.444444  0.055556  0.400000    0.00030864 166 t-inv F
  0.111111  0.111111  0.400000    0.00030864 167 t-inv F
  0.166667  0.111111  0.400000    0.00030864 168 t-inv F
  0.222222  0.111111  0.400000    0.00030864 169 t-inv F
  0.277778  0.111111  0.400000    0.00030864 170 t-inv F
  0.333333  0.111111  0.400000    0.00030864 171 t-inv F
  0.388889  0.111111  0.400000    0.00030864 172 t-inv F
  0.444444  0.111111  0.400000    0.00030864 173 t-inv F
  0.166667  0.166667  0.400000    0.00030864 174 t-inv F
  0.222222  0.166667  0.400000    0.00030864 175 t-inv F
  0.277778  0.166667  0.400000    0.00030864 176 t-inv F
  0.333333  0.166667  0.400000    0.00030864 177 t-inv F
  0.388889  0.166667  0.400000    0.00030864 178 t-inv F
  0.222222  0.222222  0.400000    0.00030864 179 t-inv F
  0.277778  0.222222  0.400000    0.00030864 180 t-inv F
  0.333333  0.222222  0.400000    0.00030864 181 t-inv F
  0.388889  0.222222  0.400000    0.00030864 182 t-inv F
  0.277778  0.277778  0.400000    0.00030864 183 t-inv F
  0.333333  0.277778  0.400000    0.00030864 184 t-inv F
  0.333333  0.333333  0.400000    0.00030864 185 t-inv F
  0.000000  0.000000  0.500000    0.00030864 186 t-inv F
  0.055556  0.000000  0.500000    0.00030864 187 t-inv F
  0.111111  0.000000  0.500000    0.00030864 188 t-inv F
  0.166667 -0.000000  0.500000    0.00030864 189 t-inv F
  0.222222 -0.000000  0.500000    0.00030864 190 t-inv F
  0.277778 -0.000000  0.500000    0.00030864 191 t-inv F
  0.333333 -0.000000  0.500000    0.00030864 192 t-inv F
  0.388889 -0.000000  0.500000    0.00030864 193 t-inv F
  0.444444 -0.000000  0.500000    0.00030864 194 t-inv F
  0.500000 -0.000000  0.500000    0.00030864 195 t-inv F
  0.055556  0.055556  0.500000    0.00030864 196 t-inv F
  0.111111  0.055556  0.500000    0.00030864 197 t-inv F
  0.166667  0.055556  0.500000    0.00030864 198 t-inv F
  0.222222  0.055556  0.500000    0.00030864 199 t-inv F
  0.277778  0.055556  0.500000    0.00030864 200 t-inv F
  0.333333  0.055556  0.500000    0.00030864 201 t-inv F
  0.388889  0.055556  0.500000    0.00030864 202 t-inv F
  0.444444  0.055556  0.500000    0.00030864 203 t-inv F
  0.111111  0.111111  0.500000    0.00030864 204 t-inv F
  0.166667  0.111111  0.500000    0.00030864 205 t-inv F
  0.222222  0.111111  0.500000    0.00030864 206 t-inv F
  0.277778  0.111111  0.500000    0.00030864 207 t-inv F
  0.333333  0.111111  0.500000    0.00030864 208 t-inv F
  0.388889  0.111111  0.500000    0.00030864 209 t-inv F
  0.444444  0.111111  0.500000    0.00030864 210 t-inv F
  0.166667  0.166667  0.500000    0.00030864 211 t-inv F
  0.222222  0.166667  0.500000    0.00030864 212 t-inv F
  0.277778  0.166667  0.500000    0.00030864 213 t-inv F
  0.333333  0.166667  0.500000    0.00030864 214 t-inv F
  0.388889  0.166667  0.500000    0.00030864 215 t-inv F
  0.222222  0.222222  0.500000    0.00030864 216 t-inv F
  0.277778  0.222222  0.500000    0.00030864 217 t-inv F
  0.333333  0.222222  0.500000    0.00030864 218 t-inv F
  0.388889  0.222222  0.500000    0.00030864 219 t-inv F
  0.277778  0.277778  0.500000    0.00030864 220 t-inv F
  0.333333  0.277778  0.500000    0.00030864 221 t-inv F
  0.333333  0.333333  0.500000    0.00030864 222 t-inv F
 -0.055556  0.055556  0.000000    0.00030864   2 t-inv F
  0.000000 -0.055556  0.000000    0.00030864   2 t-inv F
  0.000000  0.055556  0.000000    0.00030864   2 t-inv F
 -0.055556  0.000000  0.000000    0.00030864   2 t-inv F
  0.055556 -0.055556  0.000000    0.00030864   2 t-inv F
 -0.111111  0.111111  0.000000    0.00030864   3 t-inv F
  0.000000 -0.111111  0.000000    0.00030864   3 t-inv F
  0.000000  0.111111  0.000000    0.00030864   3 t-inv F
 -0.111111  0.000000  0.000000    0.00030864   3 t-inv F
  0.111111 -0.111111  0.000000    0.00030864   3 t-inv F
 -0.166667  0.166667  0.000000    0.00030864   4 t-inv F
 -0.000000 -0.166667  0.000000    0.00030864   4 t-inv F
  0.000000  0.166667  0.000000    0.00030864   4 t-inv F
 -0.166667  0.000000  0.000000    0.00030864   4 t-inv F
  0.166667 -0.166667  0.000000    0.00030864   4 t-inv F
 -0.222222  0.222222  0.000000    0.00030864   5 t-inv F
 -0.000000 -0.222222  0.000000    0.00030864   5 t-inv F
  0.000000  0.222222  0.000000    0.00030864   5 t-inv F
 -0.222222  0.000000  0.000000    0.00030864   5 t-inv F
  0.222222 -0.222222  0.000000    0.00030864   5 t-inv F
 -0.277778  0.277778  0.000000    0.00030864   6 t-inv F
 -0.000000 -0.277778  0.000000    0.00030864   6 t-inv F
  0.000000  0.277778  0.000000    0.00030864   6 t-inv F
 -0.277778  0.000000  0.000000    0.00030864   6 t-inv F
  0.277778 -0.277778  0.000000    0.00030864   6 t-inv F
 -0.333333  0.333333  0.000000    0.00030864   7 t-inv F
 -0.000000 -0.333333  0.000000    0.00030864   7 t-inv F
  0.000000  0.333333  0.000000    0.00030864   7 t-inv F
 -0.333333  0.000000  0.000000    0.00030864   7 t-inv F
  0.333333 -0.333333  0.000000    0.00030864   7 t-inv F
 -0.388889  0.388889  0.000000    0.00030864   8 t-inv F
 -0.000000 -0.388889  0.000000    0.00030864   8 t-inv F
  0.000000  0.388889  0.000000    0.00030864   8 t-inv F
 -0.388889  0.000000  0.000000    0.00030864   8 t-inv F
  0.388889 -0.388889  0.000000    0.00030864   8 t-inv F
 -0.444444  0.444444  0.000000    0.00030864   9 t-inv F
 -0.000000 -0.444444  0.000000    0.00030864   9 t-inv F
  0.000000  0.444444  0.000000    0.00030864   9 t-inv F
 -0.444444  0.000000  0.000000    0.00030864   9 t-inv F
  0.444444 -0.444444  0.000000    0.00030864   9 t-inv F
 -0.500000  0.500000  0.000000    0.00030864  10 t-inv F
 -0.000000 -0.500000  0.000000    0.00030864  10 t-inv F
 -0.111111  0.055556  0.000000    0.00030864  11 t-inv F
  0.055556 -0.111111  0.000000    0.00030864  11 t-inv F
 -0.055556  0.111111  0.000000    0.00030864  11 t-inv F
  0.111111 -0.055556  0.000000    0.00030864  11 t-inv F
 -0.055556 -0.055556  0.000000    0.00030864  11 t-inv F
 -0.166667  0.111111  0.000000    0.00030864  12 t-inv F
  0.055556 -0.166667  0.000000    0.00030864  12 t-inv F
 -0.111111  0.166667  0.000000    0.00030864  12 t-inv F
  0.166667 -0.055556  0.000000    0.00030864  12 t-inv F
 -0.055556 -0.111111  0.000000    0.00030864  12 t-inv F
 -0.055556  0.166667  0.000000    0.00030864  12 t-inv F
 -0.111111 -0.055556  0.000000    0.00030864  12 t-inv F
  0.166667 -0.111111  0.000000    0.00030864  12 t-inv F
  0.055556  0.111111  0.000000    0.00030864  12 t-inv F
  0.111111 -0.166667  0.000000    0.00030864  12 t-inv F
 -0.166667  0.055556  0.000000    0.00030864  12 t-inv F
 -0.222222  0.166667  0.000000    0.00030864  13 t-inv F
  0.055556 -0.222222  0.000000    0.00030864  13 t-inv F
 -0.166667  0.222222  0.000000    0.00030864  13 t-inv F
  0.222222 -0.055556  0.000000    0.00030864  13 t-inv F
 -0.055556 -0.166667  0.000000    0.00030864  13 t-inv F
 -0.055556  0.222222  0.000000    0.00030864  13 t-inv F
 -0.166667 -0.055556  0.000000    0.00030864  13 t-inv F
  0.222222 -0.166667  0.000000    0.00030864  13 t-inv F
  0.055556  0.166667  0.000000    0.00030864  13 t-inv F
  0.166667 -0.222222  0.000000    0.00030864  13 t-inv F
 -0.222222  0.055556  0.000000    0.00030864  13 t-inv F
 -0.277778  0.222222  0.000000    0.00030864  14 t-inv F
  0.055556 -0.277778  0.000000    0.00030864  14 t-inv F
 -0.222222  0.277778  0.000000    0.00030864  14 t-inv F
  0.277778 -0.055556  0.000000    0.00030864  14 t-inv F
 -0.055556 -0.222222  0.000000    0.00030864  14 t-inv F
 -0.055556  0.277778  0.000000    0.00030864  14 t-inv F
 -0.222222 -0.055556  0.000000    0.00030864  14 t-inv F
  0.277778 -0.222222  0.000000    0.00030864  14 t-inv F
  0.055556  0.222222  0.000000    0.00030864  14 t-inv F
  0.222222 -0.277778  0.000000    0.00030864  14 t-inv F
 -0.277778  0.055556  0.000000    0.00030864  14 t-inv F
 -0.333333  0.277778  0.000000    0.00030864  15 t-inv F
  0.055556 -0.333333  0.000000    0.00030864  15 t-inv F
 -0.277778  0.333333  0.000000    0.00030864  15 t-inv F
  0.333333 -0.055556  0.000000    0.00030864  15 t-inv F
 -0.055556 -0.277778  0.000000    0.00030864  15 t-inv F
 -0.055556  0.333333  0.000000    0.00030864  15 t-inv F
 -0.277778 -0.055556  0.000000    0.00030864  15 t-inv F
  0.333333 -0.277778  0.000000    0.00030864  15 t-inv F
  0.055556  0.277778  0.000000    0.00030864  15 t-inv F
  0.277778 -0.333333  0.000000    0.00030864  15 t-inv F
 -0.333333  0.055556  0.000000    0.00030864  15 t-inv F
 -0.388889  0.333333  0.000000    0.00030864  16 t-inv F
  0.055556 -0.388889  0.000000    0.00030864  16 t-inv F
 -0.333333  0.388889  0.000000    0.00030864  16 t-inv F
  0.388889 -0.055556  0.000000    0.00030864  16 t-inv F
 -0.055556 -0.333333  0.000000    0.00030864  16 t-inv F
 -0.055556  0.388889  0.000000    0.00030864  16 t-inv F
 -0.333333 -0.055556  0.000000    0.00030864  16 t-inv F
  0.388889 -0.333333  0.000000    0.00030864  16 t-inv F
  0.055556  0.333333  0.000000    0.00030864  16 t-inv F
  0.333333 -0.388889  0.000000    0.00030864  16 t-inv F
 -0.388889  0.055556  0.000000    0.00030864  16 t-inv F
 -0.444444  0.388889  0.000000    0.00030864  17 t-inv F
  0.055556 -0.444444  0.000000    0.00030864  17 t-inv F
 -0.388889  0.444444  0.000000    0.00030864  17 t-inv F
  0.444444 -0.055556  0.000000    0.00030864  17 t-inv F
 -0.055556 -0.388889  0.000000    0.00030864  17 t-inv F
 -0.055556  0.444444  0.000000    0.00030864  17 t-inv F
 -0.388889 -0.055556  0.000000    0.00030864  17 t-inv F
  0.444444 -0.388889  0.000000    0.00030864  17 t-inv F
  0.055556  0.388889  0.000000    0.00030864  17 t-inv F
  0.388889 -0.444444  0.000000    0.00030864  17 t-inv F
 -0.444444  0.055556  0.000000    0.00030864  17 t-inv F
 -0.500000  0.444444  0.000000    0.00030864  18 t-inv F
  0.055556 -0.500000  0.000000    0.00030864  18 t-inv F
 -0.444444  0.500000  0.000000    0.00030864  18 t-inv F
  0.500000 -0.055556  0.000000    0.00030864  18 t-inv F
 -0.055556 -0.444444  0.000000    0.00030864  18 t-inv F
 -0.055556  0.500000  0.000000    0.00030864  18 t-inv F
 -0.444444 -0.055556  0.000000    0.00030864  18 t-inv F
  0.500000 -0.444444  0.000000    0.00030864  18 t-inv F
  0.055556  0.444444  0.000000    0.00030864  18 t-inv F
  0.444444 -0.500000  0.000000    0.00030864  18 t-inv F
 -0.500000  0.055556  0.000000    0.00030864  18 t-inv F
 -0.222222  0.111111  0.000000    0.00030864  19 t-inv F
  0.111111 -0.222222  0.000000    0.00030864  19 t-inv F
 -0.111111  0.222222  0.000000    0.00030864  19 t-inv F
  0.222222 -0.111111  0.000000    0.00030864  19 t-inv F
 -0.111111 -0.111111  0.000000    0.00030864  19 t-inv F
 -0.277778  0.166667  0.000000    0.00030864  20 t-inv F
  0.111111 -0.277778  0.000000    0.00030864  20 t-inv F
 -0.166667  0.277778  0.000000    0.00030864  20 t-inv F
  0.277778 -0.111111  0.000000    0.00030864  20 t-inv F
 -0.111111 -0.166667  0.000000    0.00030864  20 t-inv F
 -0.111111  0.277778  0.000000    0.00030864  20 t-inv F
 -0.166667 -0.111111  0.000000    0.00030864  20 t-inv F
  0.277778 -0.166667  0.000000    0.00030864  20 t-inv F
  0.111111  0.166667  0.000000    0.00030864  20 t-inv F
  0.166667 -0.277778  0.000000    0.00030864  20 t-inv F
 -0.277778  0.111111  0.000000    0.00030864  20 t-inv F
 -0.333333  0.222222  0.000000    0.00030864  21 t-inv F
  0.111111 -0.333333  0.000000    0.00030864  21 t-inv F
 -0.222222  0.333333  0.000000    0.00030864  21 t-inv F
  0.333333 -0.111111  0.000000    0.00030864  21 t-inv F
 -0.111111 -0.222222  0.000000    0.00030864  21 t-inv F
 -0.111111  0.333333  0.000000    0.00030864  21 t-inv F
 -0.222222 -0.111111  0.000000    0.00030864  21 t-inv F
  0.333333 -0.222222  0.000000    0.00030864  21 t-inv F
  0.111111  0.222222  0.000000    0.00030864  21 t-inv F
  0.222222 -0.333333  0.000000    0.00030864  21 t-inv F
 -0.333333  0.111111  0.000000    0.00030864  21 t-inv F
 -0.388889  0.277778  0.000000    0.00030864  22 t-inv F
  0.111111 -0.388889  0.000000    0.00030864  22 t-inv F
 -0.277778  0.388889  0.000000    0.00030864  22 t-inv F
  0.388889 -0.111111  0.000000    0.00030864  22 t-inv F
 -0.111111 -0.277778  0.000000    0.00030864  22 t-inv F
 -0.111111  0.388889  0.000000    0.00030864  22 t-inv F
 -0.277778 -0.111111  0.000000    0.00030864  22 t-inv F
  0.388889 -0.277778  0.000000    0.00030864  22 t-inv F
  0.111111  0.277778  0.000000    0.00030864  22 t-inv F
  0.277778 -0.388889  0.000000    0.00030864  22 t-inv F
 -0.388889  0.111111  0.000000    0.00030864  22 t-inv F
 -0.444444  0.333333  0.000000    0.00030864  23 t-inv F
  0.111111 -0.444444  0.000000    0.00030864  23 t-inv F
 -0.333333  0.444444  0.000000    0.00030864  23 t-inv F
  0.444444 -0.111111  0.000000    0.00030864  23 t-inv F
 -0.111111 -0.333333  0.000000    0.00030864  23 t-inv F
 -0.111111  0.444444  0.000000    0.00030864  23 t-inv F
 -0.333333 -0.111111  0.000000    0.00030864  23 t-inv F
  0.444444 -0.333333  0.000000    0.00030864  23 t-inv F
  0.111111  0.333333  0.000000    0.00030864  23 t-inv F
  0.333333 -0.444444  0.000000    0.00030864  23 t-inv F
 -0.444444  0.111111  0.000000    0.00030864  23 t-inv F
 -0.500000  0.388889  0.000000    0.00030864  24 t-inv F
  0.111111 -0.500000  0.000000    0.00030864  24 t-inv F
 -0.388889  0.500000  0.000000    0.00030864  24 t-inv F
  0.500000 -0.111111  0.000000    0.00030864  24 t-inv F
 -0.111111 -0.388889  0.000000    0.00030864  24 t-inv F
 -0.111111  0.500000  0.000000    0.00030864  24 t-inv F
 -0.388889 -0.111111  0.000000    0.00030864  24 t-inv F
  0.500000 -0.388889  0.000000    0.00030864  24 t-inv F
  0.111111  0.388889  0.000000    0.00030864  24 t-inv F
  0.388889 -0.500000  0.000000    0.00030864  24 t-inv F
 -0.500000  0.111111  0.000000    0.00030864  24 t-inv F
 -0.555556  0.444444  0.000000    0.00030864  25 t-inv F
  0.111111 -0.555556  0.000000    0.00030864  25 t-inv F
 -0.444444  0.555556  0.000000    0.00030864  25 t-inv F
  0.555556 -0.111111  0.000000    0.00030864  25 t-inv F
 -0.111111 -0.444444  0.000000    0.00030864  25 t-inv F
 -0.333333  0.166667  0.000000    0.00030864  26 t-inv F
  0.166667 -0.333333  0.000000    0.00030864  26 t-inv F
 -0.166667  0.333333  0.000000    0.00030864  26 t-inv F
  0.333333 -0.166667  0.000000    0.00030864  26 t-inv F
 -0.166667 -0.166667  0.000000    0.00030864  26 t-inv F
 -0.388889  0.222222  0.000000    0.00030864  27 t-inv F
  0.166667 -0.388889  0.000000    0.00030864  27 t-inv F
 -0.222222  0.388889  0.000000    0.00030864  27 t-inv F
  0.388889 -0.166667  0.000000    0.00030864  27 t-inv F
 -0.166667 -0.222222  0.000000    0.00030864  27 t-inv F
 -0.166667  0.388889  0.000000    0.00030864  27 t-inv F
 -0.222222 -0.166667  0.000000    0.00030864  27 t-inv F
  0.388889 -0.222222  0.000000    0.00030864  27 t-inv F
  0.166667  0.222222  0.000000    0.00030864  27 t-inv F
  0.222222 -0.388889  0.000000    0.00030864  27 t-inv F
 -0.388889  0.166667  0.000000    0.00030864  27 t-inv F
 -0.444444  0.277778  0.000000    0.00030864  28 t-inv F
  0.166667 -0.444444  0.000000    0.00030864  28 t-inv F
 -0.277778  0.444444  0.000000    0.00030864  28 t-inv F
  0.444444 -0.166667  0.000000    0.00030864  28 t-inv F
 -0.166667 -0.277778  0.000000    0.00030864  28 t-inv F
 -0.166667  0.444444  0.000000    0.00030864  28 t-inv F
 -0.277778 -0.166667  0.000000    0.00030864  28 t-inv F
  0.444444 -0.277778  0.000000    0.00030864  28 t-inv F
  0.166667  0.277778  0.000000    0.00030864  28 t-inv F
  0.277778 -0.444444  0.000000    0.00030864  28 t-inv F
 -0.444444  0.166667  0.000000    0.00030864  28 t-inv F
 -0.500000  0.333333  0.000000    0.00030864  29 t-inv F
  0.166667 -0.500000  0.000000    0.00030864  29 t-inv F
 -0.333333  0.500000  0.000000    0.00030864  29 t-inv F
  0.500000 -0.166667  0.000000    0.00030864  29 t-inv F
 -0.166667 -0.333333  0.000000    0.00030864  29 t-inv F
 -0.166667  0.500000  0.000000    0.00030864  29 t-inv F
 -0.333333 -0.166667  0.000000    0.00030864  29 t-inv F
  0.500000 -0.333333  0.000000    0.00030864  29 t-inv F
  0.166667  0.333333  0.000000    0.00030864  29 t-inv F
  0.333333 -0.500000  0.000000    0.00030864  29 t-inv F
 -0.500000  0.166667  0.000000    0.00030864  29 t-inv F
 -0.555556  0.388889  0.000000    0.00030864  30 t-inv F
  0.166667 -0.555556  0.000000    0.00030864  30 t-inv F
 -0.388889  0.555556  0.000000    0.00030864  30 t-inv F
  0.555556 -0.166667  0.000000    0.00030864  30 t-inv F
 -0.166667 -0.388889  0.000000    0.00030864  30 t-inv F
 -0.166667  0.555556  0.000000    0.00030864  30 t-inv F
 -0.388889 -0.166667  0.000000    0.00030864  30 t-inv F
  0.555556 -0.388889  0.000000    0.00030864  30 t-inv F
  0.166667  0.388889  0.000000    0.00030864  30 t-inv F
  0.388889 -0.555556  0.000000    0.00030864  30 t-inv F
 -0.555556  0.166667  0.000000    0.00030864  30 t-inv F
 -0.444444  0.222222  0.000000    0.00030864  31 t-inv F
  0.222222 -0.444444  0.000000    0.00030864  31 t-inv F
 -0.222222  0.444444  0.000000    0.00030864  31 t-inv F
  0.444444 -0.222222  0.000000    0.00030864  31 t-inv F
 -0.222222 -0.222222  0.000000    0.00030864  31 t-inv F
 -0.500000  0.277778  0.000000    0.00030864  32 t-inv F
  0.222222 -0.500000  0.000000    0.00030864  32 t-inv F
 -0.277778  0.500000  0.000000    0.00030864  32 t-inv F
  0.500000 -0.222222  0.000000    0.00030864  32 t-inv F
 -0.222222 -0.277778  0.000000    0.00030864  32 t-inv F
 -0.222222  0.500000  0.000000    0.00030864  32 t-inv F
 -0.277778 -0.222222  0.000000    0.00030864  32 t-inv F
  0.500000 -0.277778  0.000000    0.00030864  32 t-inv F
  0.222222  0.277778  0.000000    0.00030864  32 t-inv F
  0.277778 -0.500000  0.000000    0.00030864  32 t-inv F
 -0.500000  0.222222  0.000000    0.00030864  32 t-inv F
 -0.555556  0.333333  0.000000    0.00030864  33 t-inv F
  0.222222 -0.555556  0.000000    0.00030864  33 t-inv F
 -0.333333  0.555556  0.000000    0.00030864  33 t-inv F
  0.555556 -0.222222  0.000000    0.00030864  33 t-inv F
 -0.222222 -0.333333  0.000000    0.00030864  33 t-inv F
 -0.222222  0.555556  0.000000    0.00030864  33 t-inv F
 -0.333333 -0.222222  0.000000    0.00030864  33 t-inv F
  0.555556 -0.333333  0.000000    0.00030864  33 t-inv F
  0.222222  0.333333  0.000000    0.00030864  33 t-inv F
  0.333333 -0.555556  0.000000    0.00030864  33 t-inv F
 -0.555556  0.222222  0.000000    0.00030864  33 t-inv F
 -0.611111  0.388889  0.000000    0.00030864  34 t-inv F
  0.222222 -0.611111  0.000000    0.00030864  34 t-inv F
 -0.388889  0.611111  0.000000    0.00030864  34 t-inv F
  0.611111 -0.222222  0.000000    0.00030864  34 t-inv F
 -0.222222 -0.388889  0.000000    0.00030864  34 t-inv F
 -0.555556  0.277778  0.000000    0.00030864  35 t-inv F
  0.277778 -0.555556  0.000000    0.00030864  35 t-inv F
 -0.277778  0.555556  0.000000    0.00030864  35 t-inv F
  0.555556 -0.277778  0.000000    0.00030864  35 t-inv F
 -0.277778 -0.277778  0.000000    0.00030864  35 t-inv F
 -0.611111  0.333333  0.000000    0.00030864  36 t-inv F
  0.277778 -0.611111  0.000000    0.00030864  36 t-inv F
 -0.333333  0.611111  0.000000    0.00030864  36 t-inv F
  0.611111 -0.277778  0.000000    0.00030864  36 t-inv F
 -0.277778 -0.333333  0.000000    0.00030864  36 t-inv F
 -0.277778  0.611111  0.000000    0.00030864  36 t-inv F
 -0.333333 -0.277778  0.000000    0.00030864  36 t-inv F
  0.611111 -0.333333  0.000000    0.00030864  36 t-inv F
  0.277778  0.333333  0.000000    0.00030864  36 t-inv F
  0.333333 -0.611111  0.000000    0.00030864  36 t-inv F
 -0.611111  0.277778  0.000000    0.00030864  36 t-inv F
 -0.333333  0.666667  0.000000    0.00030864  37 t-inv F
 -0.055556  0.055556  0.100000    0.00030864  39 t-inv F
  0.000000 -0.055556  0.100000    0.00030864  39 t-inv F
  0.000000  0.055556  0.100000    0.00030864  39 t-inv F
 -0.055556  0.000000  0.100000    0.00030864  39 t-inv F
  0.055556 -0.055556  0.100000    0.00030864  39 t-inv F
 -0.111111  0.111111  0.100000    0.00030864  40 t-inv F
  0.000000 -0.111111  0.100000    0.00030864  40 t-inv F
  0.000000  0.111111  0.100000    0.00030864  40 t-inv F
 -0.111111  0.000000  0.100000    0.00030864  40 t-inv F
  0.111111 -0.111111  0.100000    0.00030864  40 t-inv F
 -0.166667  0.166667  0.100000    0.00030864  41 t-inv F
 -0.000000 -0.166667  0.100000    0.00030864  41 t-inv F
  0.000000  0.166667  0.100000    0.00030864  41 t-inv F
 -0.166667  0.000000  0.100000    0.00030864  41 t-inv F
  0.166667 -0.166667  0.100000    0.00030864  41 t-inv F
 -0.222222  0.222222  0.100000    0.00030864  42 t-inv F
 -0.000000 -0.222222  0.100000    0.00030864  42 t-inv F
  0.000000  0.222222  0.100000    0.00030864  42 t-inv F
 -0.222222  0.000000  0.100000    0.00030864  42 t-inv F
  0.222222 -0.222222  0.100000    0.00030864  42 t-inv F
 -0.277778  0.277778  0.100000    0.00030864  43 t-inv F
 -0.000000 -0.277778  0.100000    0.00030864  43 t-inv F
  0.000000  0.277778  0.100000    0.00030864  43 t-inv F
 -0.277778  0.000000  0.100000    0.00030864  43 t-inv F
  0.277778 -0.277778  0.100000    0.00030864  43 t-inv F
 -0.333333  0.333333  0.100000    0.00030864  44 t-inv F
 -0.000000 -0.333333  0.100000    0.00030864  44 t-inv F
  0.000000  0.333333  0.100000    0.00030864  44 t-inv F
 -0.333333  0.000000  0.100000    0.00030864  44 t-inv F
  0.333333 -0.333333  0.100000    0.00030864  44 t-inv F
 -0.388889  0.388889  0.100000    0.00030864  45 t-inv F
 -0.000000 -0.388889  0.100000    0.00030864  45 t-inv F
  0.000000  0.388889  0.100000    0.00030864  45 t-inv F
 -0.388889  0.000000  0.100000    0.00030864  45 t-inv F
  0.388889 -0.388889  0.100000    0.00030864  45 t-inv F
 -0.444444  0.444444  0.100000    0.00030864  46 t-inv F
 -0.000000 -0.444444  0.100000    0.00030864  46 t-inv F
  0.000000  0.444444  0.100000    0.00030864  46 t-inv F
 -0.444444  0.000000  0.100000    0.00030864  46 t-inv F
  0.444444 -0.444444  0.100000    0.00030864  46 t-inv F
 -0.500000  0.500000  0.100000    0.00030864  47 t-inv F
 -0.000000 -0.500000  0.100000    0.00030864  47 t-inv F
 -0.111111  0.055556  0.100000    0.00030864  48 t-inv F
  0.055556 -0.111111  0.100000    0.00030864  48 t-inv F
 -0.055556  0.111111  0.100000    0.00030864  48 t-inv F
  0.111111 -0.055556  0.100000    0.00030864  48 t-inv F
 -0.055556 -0.055556  0.100000    0.00030864  48 t-inv F
 -0.166667  0.111111  0.100000    0.00030864  49 t-inv F
  0.055556 -0.166667  0.100000    0.00030864  49 t-inv F
 -0.111111  0.166667  0.100000    0.00030864  49 t-inv F
  0.166667 -0.055556  0.100000    0.00030864  49 t-inv F
 -0.055556 -0.111111  0.100000    0.00030864  49 t-inv F
 -0.055556  0.166667  0.100000    0.00030864  49 t-inv F
 -0.111111 -0.055556  0.100000    0.00030864  49 t-inv F
  0.166667 -0.111111  0.100000    0.00030864  49 t-inv F
  0.055556  0.111111  0.100000    0.00030864  49 t-inv F
  0.111111 -0.166667  0.100000    0.00030864  49 t-inv F
 -0.166667  0.055556  0.100000    0.00030864  49 t-inv F
 -0.222222  0.166667  0.100000    0.00030864  50 t-inv F
  0.055556 -0.222222  0.100000    0.00030864  50 t-inv F
 -0.166667  0.222222  0.100000    0.00030864  50 t-inv F
  0.222222 -0.055556  0.100000    0.00030864  50 t-inv F
 -0.055556 -0.166667  0.100000    0.00030864  50 t-inv F
 -0.055556  0.222222  0.100000    0.00030864  50 t-inv F
 -0.166667 -0.055556  0.100000    0.00030864  50 t-inv F
  0.222222 -0.166667  0.100000    0.00030864  50 t-inv F
  0.055556  0.166667  0.100000    0.00030864  50 t-inv F
  0.166667 -0.222222  0.100000    0.00030864  50 t-inv F
 -0.222222  0.055556  0.100000    0.00030864  50 t-inv F
 -0.277778  0.222222  0.100000    0.00030864  51 t-inv F
  0.055556 -0.277778  0.100000    0.00030864  51 t-inv F
 -0.222222  0.277778  0.100000    0.00030864  51 t-inv F
  0.277778 -0.055556  0.100000    0.00030864  51 t-inv F
 -0.055556 -0.222222  0.100000    0.00030864  51 t-inv F
 -0.055556  0.277778  0.100000    0.00030864  51 t-inv F
 -0.222222 -0.055556  0.100000    0.00030864  51 t-inv F
  0.277778 -0.222222  0.100000    0.00030864  51 t-inv F
  0.055556  0.222222  0.100000    0.00030864  51 t-inv F
  0.222222 -0.277778  0.100000    0.00030864  51 t-inv F
 -0.277778  0.055556  0.100000    0.00030864  51 t-inv F
 -0.333333  0.277778  0.100000    0.00030864  52 t-inv F
  0.055556 -0.333333  0.100000    0.00030864  52 t-inv F
 -0.277778  0.333333  0.100000    0.00030864  52 t-inv F
  0.333333 -0.055556  0.100000    0.00030864  52 t-inv F
 -0.055556 -0.277778  0.100000    0.00030864  52 t-inv F
 -0.055556  0.333333  0.100000    0.00030864  52 t-inv F
 -0.277778 -0.055556  0.100000    0.00030864  52 t-inv F
  0.333333 -0.277778  0.100000    0.00030864  52 t-inv F
  0.055556  0.277778  0.100000    0.00030864  52 t-inv F
  0.277778 -0.333333  0.100000    0.00030864  52 t-inv F
 -0.333333  0.055556  0.100000    0.00030864  52 t-inv F
 -0.388889  0.333333  0.100000    0.00030864  53 t-inv F
  0.055556 -0.388889  0.100000    0.00030864  53 t-inv F
 -0.333333  0.388889  0.100000    0.00030864  53 t-inv F
  0.388889 -0.055556  0.100000    0.00030864  53 t-inv F
 -0.055556 -0.333333  0.100000    0.00030864  53 t-inv F
 -0.055556  0.388889  0.100000    0.00030864  53 t-inv F
 -0.333333 -0.055556  0.100000    0.00030864  53 t-inv F
  0.388889 -0.333333  0.100000    0.00030864  53 t-inv F
  0.055556  0.333333  0.100000    0.00030864  53 t-inv F
  0.333333 -0.388889  0.100000    0.00030864  53 t-inv F
 -0.388889  0.055556  0.100000    0.00030864  53 t-inv F
 -0.444444  0.388889  0.100000    0.00030864  54 t-inv F
  0.055556 -0.444444  0.100000    0.00030864  54 t-inv F
 -0.388889  0.444444  0.100000    0.00030864  54 t-inv F
  0.444444 -0.055556  0.100000    0.00030864  54 t-inv F
 -0.055556 -0.388889  0.100000    0.00030864  54 t-inv F
 -0.055556  0.444444  0.100000    0.00030864  54 t-inv F
 -0.388889 -0.055556  0.100000    0.00030864  54 t-inv F
  0.444444 -0.388889  0.100000    0.00030864  54 t-inv F
  0.055556  0.388889  0.100000    0.00030864  54 t-inv F
  0.388889 -0.444444  0.100000    0.00030864  54 t-inv F
 -0.444444  0.055556  0.100000    0.00030864  54 t-inv F
 -0.500000  0.444444  0.100000    0.00030864  55 t-inv F
  0.055556 -0.500000  0.100000    0.00030864  55 t-inv F
 -0.444444  0.500000  0.100000    0.00030864  55 t-inv F
  0.500000 -0.055556  0.100000    0.00030864  55 t-inv F
 -0.055556 -0.444444  0.100000    0.00030864  55 t-inv F
 -0.055556  0.500000  0.100000    0.00030864  55 t-inv F
 -0.444444 -0.055556  0.100000    0.00030864  55 t-inv F
  0.500000 -0.444444  0.100000    0.00030864  55 t-inv F
  0.055556  0.444444  0.100000    0.00030864  55 t-inv F
  0.444444 -0.500000  0.100000    0.00030864  55 t-inv F
 -0.500000  0.055556  0.100000    0.00030864  55 t-inv F
 -0.222222  0.111111  0.100000    0.00030864  56 t-inv F
  0.111111 -0.222222  0.100000    0.00030864  56 t-inv F
 -0.111111  0.222222  0.100000    0.00030864  56 t-inv F
  0.222222 -0.111111  0.100000    0.00030864  56 t-inv F
 -0.111111 -0.111111  0.100000    0.00030864  56 t-inv F
 -0.277778  0.166667  0.100000    0.00030864  57 t-inv F
  0.111111 -0.277778  0.100000    0.00030864  57 t-inv F
 -0.166667  0.277778  0.100000    0.00030864  57 t-inv F
  0.277778 -0.111111  0.100000    0.00030864  57 t-inv F
 -0.111111 -0.166667  0.100000    0.00030864  57 t-inv F
 -0.111111  0.277778  0.100000    0.00030864  57 t-inv F
 -0.166667 -0.111111  0.100000    0.00030864  57 t-inv F
  0.277778 -0.166667  0.100000    0.00030864  57 t-inv F
  0.111111  0.166667  0.100000    0.00030864  57 t-inv F
  0.166667 -0.277778  0.100000    0.00030864  57 t-inv F
 -0.277778  0.111111  0.100000    0.00030864  57 t-inv F
 -0.333333  0.222222  0.100000    0.00030864  58 t-inv F
  0.111111 -0.333333  0.100000    0.00030864  58 t-inv F
 -0.222222  0.333333  0.100000    0.00030864  58 t-inv F
  0.333333 -0.111111  0.100000    0.00030864  58 t-inv F
 -0.111111 -0.222222  0.100000    0.00030864  58 t-inv F
 -0.111111  0.333333  0.100000    0.00030864  58 t-inv F
 -0.222222 -0.111111  0.100000    0.00030864  58 t-inv F
  0.333333 -0.222222  0.100000    0.00030864  58 t-inv F
  0.111111  0.222222  0.100000    0.00030864  58 t-inv F
  0.222222 -0.333333  0.100000    0.00030864  58 t-inv F
 -0.333333  0.111111  0.100000    0.00030864  58 t-inv F
 -0.388889  0.277778  0.100000    0.00030864  59 t-inv F
  0.111111 -0.388889  0.100000    0.00030864  59 t-inv F
 -0.277778  0.388889  0.100000    0.00030864  59 t-inv F
  0.388889 -0.111111  0.100000    0.00030864  59 t-inv F
 -0.111111 -0.277778  0.100000    0.00030864  59 t-inv F
 -0.111111  0.388889  0.100000    0.00030864  59 t-inv F
 -0.277778 -0.111111  0.100000    0.00030864  59 t-inv F
  0.388889 -0.277778  0.100000    0.00030864  59 t-inv F
  0.111111  0.277778  0.100000    0.00030864  59 t-inv F
  0.277778 -0.388889  0.100000    0.00030864  59 t-inv F
 -0.388889  0.111111  0.100000    0.00030864  59 t-inv F
 -0.444444  0.333333  0.100000    0.00030864  60 t-inv F
  0.111111 -0.444444  0.100000    0.00030864  60 t-inv F
 -0.333333  0.444444  0.100000    0.00030864  60 t-inv F
  0.444444 -0.111111  0.100000    0.00030864  60 t-inv F
 -0.111111 -0.333333  0.100000    0.00030864  60 t-inv F
 -0.111111  0.444444  0.100000    0.00030864  60 t-inv F
 -0.333333 -0.111111  0.100000    0.00030864  60 t-inv F
  0.444444 -0.333333  0.100000    0.00030864  60 t-inv F
  0.111111  0.333333  0.100000    0.00030864  60 t-inv F
  0.333333 -0.444444  0.100000    0.00030864  60 t-inv F
 -0.444444  0.111111  0.100000    0.00030864  60 t-inv F
 -0.500000  0.388889  0.100000    0.00030864  61 t-inv F
  0.111111 -0.500000  0.100000    0.00030864  61 t-inv F
 -0.388889  0.500000  0.100000    0.00030864  61 t-inv F
  0.500000 -0.111111  0.100000    0.00030864  61 t-inv F
 -0.111111 -0.388889  0.100000    0.00030864  61 t-inv F
 -0.111111  0.500000  0.100000    0.00030864  61 t-inv F
 -0.388889 -0.111111  0.100000    0.00030864  61 t-inv F
  0.500000 -0.388889  0.100000    0.00030864  61 t-inv F
  0.111111  0.388889  0.100000    0.00030864  61 t-inv F
  0.388889 -0.500000  0.100000    0.00030864  61 t-inv F
 -0.500000  0.111111  0.100000    0.00030864  61 t-inv F
 -0.555556  0.444444  0.100000    0.00030864  62 t-inv F
  0.111111 -0.555556  0.100000    0.00030864  62 t-inv F
 -0.444444  0.555556  0.100000    0.00030864  62 t-inv F
  0.555556 -0.111111  0.100000    0.00030864  62 t-inv F
 -0.111111 -0.444444  0.100000    0.00030864  62 t-inv F
 -0.333333  0.166667  0.100000    0.00030864  63 t-inv F
  0.166667 -0.333333  0.100000    0.00030864  63 t-inv F
 -0.166667  0.333333  0.100000    0.00030864  63 t-inv F
  0.333333 -0.166667  0.100000    0.00030864  63 t-inv F
 -0.166667 -0.166667  0.100000    0.00030864  63 t-inv F
 -0.388889  0.222222  0.100000    0.00030864  64 t-inv F
  0.166667 -0.388889  0.100000    0.00030864  64 t-inv F
 -0.222222  0.388889  0.100000    0.00030864  64 t-inv F
  0.388889 -0.166667  0.100000    0.00030864  64 t-inv F
 -0.166667 -0.222222  0.100000    0.00030864  64 t-inv F
 -0.166667  0.388889  0.100000    0.00030864  64 t-inv F
 -0.222222 -0.166667  0.100000    0.00030864  64 t-inv F
  0.388889 -0.222222  0.100000    0.00030864  64 t-inv F
  0.166667  0.222222  0.100000    0.00030864  64 t-inv F
  0.222222 -0.388889  0.100000    0.00030864  64 t-inv F
 -0.388889  0.166667  0.100000    0.00030864  64 t-inv F
 -0.444444  0.277778  0.100000    0.00030864  65 t-inv F
  0.166667 -0.444444  0.100000    0.00030864  65 t-inv F
 -0.277778  0.444444  0.100000    0.00030864  65 t-inv F
  0.444444 -0.166667  0.100000    0.00030864  65 t-inv F
 -0.166667 -0.277778  0.100000    0.00030864  65 t-inv F
 -0.166667  0.444444  0.100000    0.00030864  65 t-inv F
 -0.277778 -0.166667  0.100000    0.00030864  65 t-inv F
  0.444444 -0.277778  0.100000    0.00030864  65 t-inv F
  0.166667  0.277778  0.100000    0.00030864  65 t-inv F
  0.277778 -0.444444  0.100000    0.00030864  65 t-inv F
 -0.444444  0.166667  0.100000    0.00030864  65 t-inv F
 -0.500000  0.333333  0.100000    0.00030864  66 t-inv F
  0.166667 -0.500000  0.100000    0.00030864  66 t-inv F
 -0.333333  0.500000  0.100000    0.00030864  66 t-inv F
  0.500000 -0.166667  0.100000    0.00030864  66 t-inv F
 -0.166667 -0.333333  0.100000    0.00030864  66 t-inv F
 -0.166667  0.500000  0.100000    0.00030864  66 t-inv F
 -0.333333 -0.166667  0.100000    0.00030864  66 t-inv F
  0.500000 -0.333333  0.100000    0.00030864  66 t-inv F
  0.166667  0.333333  0.100000    0.00030864  66 t-inv F
  0.333333 -0.500000  0.100000    0.00030864  66 t-inv F
 -0.500000  0.166667  0.100000    0.00030864  66 t-inv F
 -0.555556  0.388889  0.100000    0.00030864  67 t-inv F
  0.166667 -0.555556  0.100000    0.00030864  67 t-inv F
 -0.388889  0.555556  0.100000    0.00030864  67 t-inv F
  0.555556 -0.166667  0.100000    0.00030864  67 t-inv F
 -0.166667 -0.388889  0.100000    0.00030864  67 t-inv F
 -0.166667  0.555556  0.100000    0.00030864  67 t-inv F
 -0.388889 -0.166667  0.100000    0.00030864  67 t-inv F
  0.555556 -0.388889  0.100000    0.00030864  67 t-inv F
  0.166667  0.388889  0.100000    0.00030864  67 t-inv F
  0.388889 -0.555556  0.100000    0.00030864  67 t-inv F
 -0.555556  0.166667  0.100000    0.00030864  67 t-inv F
 -0.444444  0.222222  0.100000    0.00030864  68 t-inv F
  0.222222 -0.444444  0.100000    0.00030864  68 t-inv F
 -0.222222  0.444444  0.100000    0.00030864  68 t-inv F
  0.444444 -0.222222  0.100000    0.00030864  68 t-inv F
 -0.222222 -0.222222  0.100000    0.00030864  68 t-inv F
 -0.500000  0.277778  0.100000    0.00030864  69 t-inv F
  0.222222 -0.500000  0.100000    0.00030864  69 t-inv F
 -0.277778  0.500000  0.100000    0.00030864  69 t-inv F
  0.500000 -0.222222  0.100000    0.00030864  69 t-inv F
 -0.222222 -0.277778  0.100000    0.00030864  69 t-inv F
 -0.222222  0.500000  0.100000    0.00030864  69 t-inv F
 -0.277778 -0.222222  0.100000    0.00030864  69 t-inv F
  0.500000 -0.277778  0.100000    0.00030864  69 t-inv F
  0.222222  0.277778  0.100000    0.00030864  69 t-inv F
  0.277778 -0.500000  0.100000    0.00030864  69 t-inv F
 -0.500000  0.222222  0.100000    0.00030864  69 t-inv F
 -0.555556  0.333333  0.100000    0.00030864  70 t-inv F
  0.222222 -0.555556  0.100000    0.00030864  70 t-inv F
 -0.333333  0.555556  0.100000    0.00030864  70 t-inv F
  0.555556 -0.222222  0.100000    0.00030864  70 t-inv F
 -0.222222 -0.333333  0.100000    0.00030864  70 t-inv F
 -0.222222  0.555556  0.100000    0.00030864  70 t-inv F
 -0.333333 -0.222222  0.100000    0.00030864  70 t-inv F
  0.555556 -0.333333  0.100000    0.00030864  70 t-inv F
  0.222222  0.333333  0.100000    0.00030864  70 t-inv F
  0.333333 -0.555556  0.100000    0.00030864  70 t-inv F
 -0.555556  0.222222  0.100000    0.00030864  70 t-inv F
 -0.611111  0.388889  0.100000    0.00030864  71 t-inv F
  0.222222 -0.611111  0.100000    0.00030864  71 t-inv F
 -0.388889  0.611111  0.100000    0.00030864  71 t-inv F
  0.611111 -0.222222  0.100000    0.00030864  71 t-inv F
 -0.222222 -0.388889  0.100000    0.00030864  71 t-inv F
 -0.555556  0.277778  0.100000    0.00030864  72 t-inv F
  0.277778 -0.555556  0.100000    0.00030864  72 t-inv F
 -0.277778  0.555556  0.100000    0.00030864  72 t-inv F
  0.555556 -0.277778  0.100000    0.00030864  72 t-inv F
 -0.277778 -0.277778  0.100000    0.00030864  72 t-inv F
 -0.611111  0.333333  0.100000    0.00030864  73 t-inv F
  0.277778 -0.611111  0.100000    0.00030864  73 t-inv F
 -0.333333  0.611111  0.100000    0.00030864  73 t-inv F
  0.611111 -0.277778  0.100000    0.00030864  73 t-inv F
 -0.277778 -0.333333  0.100000    0.00030864  73 t-inv F
 -0.277778  0.611111  0.100000    0.00030864  73 t-inv F
 -0.333333 -0.277778  0.100000    0.00030864  73 t-inv F
  0.611111 -0.333333  0.100000    0.00030864  73 t-inv F
  0.277778  0.333333  0.100000    0.00030864  73 t-inv F
  0.333333 -0.611111  0.100000    0.00030864  73 t-inv F
 -0.611111  0.277778  0.100000    0.00030864  73 t-inv F
 -0.333333  0.666667  0.100000    0.00030864  74 t-inv F
 -0.055556  0.055556  0.200000    0.00030864  76 t-inv F
  0.000000 -0.055556  0.200000    0.00030864  76 t-inv F
  0.000000  0.055556  0.200000    0.00030864  76 t-inv F
 -0.055556  0.000000  0.200000    0.00030864  76 t-inv F
  0.055556 -0.055556  0.200000    0.00030864  76 t-inv F
 -0.111111  0.111111  0.200000    0.00030864  77 t-inv F
  0.000000 -0.111111  0.200000    0.00030864  77 t-inv F
  0.000000  0.111111  0.200000    0.00030864  77 t-inv F
 -0.111111  0.000000  0.200000    0.00030864  77 t-inv F
  0.111111 -0.111111  0.200000    0.00030864  77 t-inv F
 -0.166667  0.166667  0.200000    0.00030864  78 t-inv F
 -0.000000 -0.166667  0.200000    0.00030864  78 t-inv F
  0.000000  0.166667  0.200000    0.00030864  78 t-inv F
 -0.166667  0.000000  0.200000    0.00030864  78 t-inv F
  0.166667 -0.166667  0.200000    0.00030864  78 t-inv F
 -0.222222  0.222222  0.200000    0.00030864  79 t-inv F
 -0.000000 -0.222222  0.200000    0.00030864  79 t-inv F
  0.000000  0.222222  0.200000    0.00030864  79 t-inv F
 -0.222222  0.000000  0.200000    0.00030864  79 t-inv F
  0.222222 -0.222222  0.200000    0.00030864  79 t-inv F
 -0.277778  0.277778  0.200000    0.00030864  80 t-inv F
 -0.000000 -0.277778  0.200000    0.00030864  80 t-inv F
  0.000000  0.277778  0.200000    0.00030864  80 t-inv F
 -0.277778  0.000000  0.200000    0.00030864  80 t-inv F
  0.277778 -0.277778  0.200000    0.00030864  80 t-inv F
 -0.333333  0.333333  0.200000    0.00030864  81 t-inv F
 -0.000000 -0.333333  0.200000    0.00030864  81 t-inv F
  0.000000  0.333333  0.200000    0.00030864  81 t-inv F
 -0.333333  0.000000  0.200000    0.00030864  81 t-inv F
  0.333333 -0.333333  0.200000    0.00030864  81 t-inv F
 -0.388889  0.388889  0.200000    0.00030864  82 t-inv F
 -0.000000 -0.388889  0.200000    0.00030864  82 t-inv F
  0.000000  0.388889  0.200000    0.00030864  82 t-inv F
 -0.388889  0.000000  0.200000    0.00030864  82 t-inv F
  0.388889 -0.388889  0.200000    0.00030864  82 t-inv F
 -0.444444  0.444444  0.200000    0.00030864  83 t-inv F
 -0.000000 -0.444444  0.200000    0.00030864  83 t-inv F
  0.000000  0.444444  0.200000    0.00030864  83 t-inv F
 -0.444444  0.000000  0.200000    0.00030864  83 t-inv F
  0.444444 -0.444444  0.200000    0.00030864  83 t-inv F
 -0.500000  0.500000  0.200000    0.00030864  84 t-inv F
 -0.000000 -0.500000  0.200000    0.00030864  84 t-inv F
 -0.111111  0.055556  0.200000    0.00030864  85 t-inv F
  0.055556 -0.111111  0.200000    0.00030864  85 t-inv F
 -0.055556  0.111111  0.200000    0.00030864  85 t-inv F
  0.111111 -0.055556  0.200000    0.00030864  85 t-inv F
 -0.055556 -0.055556  0.200000    0.00030864  85 t-inv F
 -0.166667  0.111111  0.200000    0.00030864  86 t-inv F
  0.055556 -0.166667  0.200000    0.00030864  86 t-inv F
 -0.111111  0.166667  0.200000    0.00030864  86 t-inv F
  0.166667 -0.055556  0.200000    0.00030864  86 t-inv F
 -0.055556 -0.111111  0.200000    0.00030864  86 t-inv F
 -0.055556  0.166667  0.200000    0.00030864  86 t-inv F
 -0.111111 -0.055556  0.200000    0.00030864  86 t-inv F
  0.166667 -0.111111  0.200000    0.00030864  86 t-inv F
  0.055556  0.111111  0.200000    0.00030864  86 t-inv F
  0.111111 -0.166667  0.200000    0.00030864  86 t-inv F
 -0.166667  0.055556  0.200000    0.00030864  86 t-inv F
 -0.222222  0.166667  0.200000    0.00030864  87 t-inv F
  0.055556 -0.222222  0.200000    0.00030864  87 t-inv F
 -0.166667  0.222222  0.200000    0.00030864  87 t-inv F
  0.222222 -0.055556  0.200000    0.00030864  87 t-inv F
 -0.055556 -0.166667  0.200000    0.00030864  87 t-inv F
 -0.055556  0.222222  0.200000    0.00030864  87 t-inv F
 -0.166667 -0.055556  0.200000    0.00030864  87 t-inv F
  0.222222 -0.166667  0.200000    0.00030864  87 t-inv F
  0.055556  0.166667  0.200000    0.00030864  87 t-inv F
  0.166667 -0.222222  0.200000    0.00030864  87 t-inv F
 -0.222222  0.055556  0.200000    0.00030864  87 t-inv F
 -0.277778  0.222222  0.200000    0.00030864  88 t-inv F
  0.055556 -0.277778  0.200000    0.00030864  88 t-inv F
 -0.222222  0.277778  0.200000    0.00030864  88 t-inv F
  0.277778 -0.055556  0.200000    0.00030864  88 t-inv F
 -0.055556 -0.222222  0.200000    0.00030864  88 t-inv F
 -0.055556  0.277778  0.200000    0.00030864  88 t-inv F
 -0.222222 -0.055556  0.200000    0.00030864  88 t-inv F
  0.277778 -0.222222  0.200000    0.00030864  88 t-inv F
  0.055556  0.222222  0.200000    0.00030864  88 t-inv F
  0.222222 -0.277778  0.200000    0.00030864  88 t-inv F
 -0.277778  0.055556  0.200000    0.00030864  88 t-inv F
 -0.333333  0.277778  0.200000    0.00030864  89 t-inv F
  0.055556 -0.333333  0.200000    0.00030864  89 t-inv F
 -0.277778  0.333333  0.200000    0.00030864  89 t-inv F
  0.333333 -0.055556  0.200000    0.00030864  89 t-inv F
 -0.055556 -0.277778  0.200000    0.00030864  89 t-inv F
 -0.055556  0.333333  0.200000    0.00030864  89 t-inv F
 -0.277778 -0.055556  0.200000    0.00030864  89 t-inv F
  0.333333 -0.277778  0.200000    0.00030864  89 t-inv F
  0.055556  0.277778  0.200000    0.00030864  89 t-inv F
  0.277778 -0.333333  0.200000    0.00030864  89 t-inv F
 -0.333333  0.055556  0.200000    0.00030864  89 t-inv F
 -0.388889  0.333333  0.200000    0.00030864  90 t-inv F
  0.055556 -0.388889  0.200000    0.00030864  90 t-inv F
 -0.333333  0.388889  0.200000    0.00030864  90 t-inv F
  0.388889 -0.055556  0.200000    0.00030864  90 t-inv F
 -0.055556 -0.333333  0.200000    0.00030864  90 t-inv F
 -0.055556  0.388889  0.200000    0.00030864  90 t-inv F
 -0.333333 -0.055556  0.200000    0.00030864  90 t-inv F
  0.388889 -0.333333  0.200000    0.00030864  90 t-inv F
  0.055556  0.333333  0.200000    0.00030864  90 t-inv F
  0.333333 -0.388889  0.200000    0.00030864  90 t-inv F
 -0.388889  0.055556  0.200000    0.00030864  90 t-inv F
 -0.444444  0.388889  0.200000    0.00030864  91 t-inv F
  0.055556 -0.444444  0.200000    0.00030864  91 t-inv F
 -0.388889  0.444444  0.200000    0.00030864  91 t-inv F
  0.444444 -0.055556  0.200000    0.00030864  91 t-inv F
 -0.055556 -0.388889  0.200000    0.00030864  91 t-inv F
 -0.055556  0.444444  0.200000    0.00030864  91 t-inv F
[...]
     25      14.7581      0.00000

 k-point   211 :       0.1667    0.1667    0.5000
  band No.  band energies     occupation 
      1     -24.1819      2.00000
      2     -24.1819      2.00000
      3     -12.4613      2.00000
      4     -12.4613      2.00000
      5     -12.3954      2.00000
      6     -12.3954      2.00000
      7     -12.2922      2.00000
      8     -12.2922      2.00000
      9     -11.9211      2.00000
     10     -11.9211      2.00000
     11     -11.8581      2.00000
     12     -11.8581      2.00000
     13      -7.5849      2.00000
     14      -7.5849      2.00000
     15      -5.8414      2.00000
     16      -5.8414      2.00000
     17      -5.6183      2.00000
     18      -5.6183      2.00000
     19       5.0914      0.00000
     20       5.0914      0.00000
     21       9.7722      0.00000
     22       9.7722      0.00000
     23      11.6915      0.00000
     24      11.6915      0.00000
     25      14.1714      0.00000

 k-point   212 :       0.2222    0.1667    0.5000
  band No.  band energies     occupation 
      1     -24.1283      2.00000
      2     -24.1283      2.00000
      3     -12.4521      2.00000
      4     -12.4521      2.00000
      5     -12.3452      2.00000
      6     -12.3452      2.00000
      7     -12.2422      2.00000
      8     -12.2422      2.00000
      9     -11.9153      2.00000
     10     -11.9153      2.00000
     11     -11.8145      2.00000
     12     -11.8145      2.00000
     13      -7.8584      2.00000
     14      -7.8584      2.00000
     15      -6.0412      2.00000
     16      -6.0412      2.00000
     17      -5.6764      2.00000
     18      -5.6764      2.00000
     19       5.5445      0.00000
     20       5.5445      0.00000
     21       9.4845      0.00000
     22       9.4845      0.00000
     23      11.3266      0.00000
     24      11.3266      0.00000
     25      14.3372      0.00000

 k-point   213 :       0.2778    0.1667    0.5000
  band No.  band energies     occupation 
      1     -24.0811      2.00000
      2     -24.0811      2.00000
      3     -12.4457      2.00000
      4     -12.4457      2.00000
      5     -12.3145      2.00000
      6     -12.3145      2.00000
      7     -12.1791      2.00000
      8     -12.1791      2.00000
      9     -11.9123      2.00000
     10     -11.9123      2.00000
     11     -11.7567      2.00000
     12     -11.7567      2.00000
     13      -8.1281      2.00000
     14      -8.1281      2.00000
     15      -6.2526      2.00000
     16      -6.2526      2.00000
     17      -5.6735      2.00000
     18      -5.6735      2.00000
     19       5.9749      0.00000
     20       5.9749      0.00000
     21       9.2000      0.00000
     22       9.2000      0.00000
     23      10.9729      0.00000
     24      10.9729      0.00000
     25      14.6077      0.00000

 k-point   214 :       0.3333    0.1667    0.5000
  band No.  band energies     occupation 
      1     -24.0457      2.00000
      2     -24.0457      2.00000
      3     -12.4407      2.00000
      4     -12.4407      2.00000
      5     -12.3026      2.00000
      6     -12.3026      2.00000
      7     -12.1170      2.00000
      8     -12.1170      2.00000
      9     -11.9144      2.00000
     10     -11.9144      2.00000
     11     -11.6967      2.00000
     12     -11.6967      2.00000
     13      -8.3487      2.00000
     14      -8.3487      2.00000
     15      -6.4147      2.00000
     16      -6.4147      2.00000
     17      -5.6557      2.00000
     18      -5.6557      2.00000
     19       6.3344      0.00000
     20       6.3344      0.00000
     21       8.9500      0.00000
     22       8.9500      0.00000
     23      10.6943      0.00000
     24      10.6943      0.00000
     25      14.8927      0.00000

 k-point   215 :       0.3889    0.1667    0.5000
  band No.  band energies     occupation 
      1     -24.0272      2.00000
      2     -24.0272      2.00000
      3     -12.4379      2.00000
      4     -12.4379      2.00000
      5     -12.2994      2.00000
      6     -12.2994      2.00000
      7     -12.0777      2.00000
      8     -12.0777      2.00000
      9     -11.9194      2.00000
     10     -11.9194      2.00000
     11     -11.6570      2.00000
     12     -11.6570      2.00000
     13      -8.4754      2.00000
     14      -8.4754      2.00000
     15      -6.5009      2.00000
     16      -6.5009      2.00000
     17      -5.6434      2.00000
     18      -5.6434      2.00000
     19       6.5523      0.00000
     20       6.5523      0.00000
     21       8.7876      0.00000
     22       8.7876      0.00000
     23      10.5415      0.00000
     24      10.5415      0.00000
     25      15.0773      0.00000

 k-point   216 :       0.2222    0.2222    0.5000
  band No.  band energies     occupation 
      1     -24.0829      2.00000
      2     -24.0829      2.00000
      3     -12.4370      2.00000
      4     -12.4370      2.00000
      5     -12.3132      2.00000
      6     -12.3132      2.00000
      7     -12.1967      2.00000
      8     -12.1967      2.00000
      9     -11.9139      2.00000
     10     -11.9139      2.00000
     11     -11.7555      2.00000
     12     -11.7555      2.00000
     13      -8.0659      2.00000
     14      -8.0659      2.00000
     15      -6.3169      2.00000
     16      -6.3169      2.00000
     17      -5.6694      2.00000
     18      -5.6694      2.00000
     19       6.0232      0.00000
     20       6.0232      0.00000
     21       9.2926      0.00000
     22       9.2926      0.00000
     23      10.8059      0.00000
     24      10.8059      0.00000
     25      14.6217      0.00000

 k-point   217 :       0.2778    0.2222    0.5000
  band No.  band energies     occupation 
      1     -24.0458      2.00000
      2     -24.0458      2.00000
      3     -12.4240      2.00000
      4     -12.4240      2.00000
      5     -12.3035      2.00000
      6     -12.3035      2.00000
      7     -12.1382      2.00000
      8     -12.1382      2.00000
      9     -11.9194      2.00000
     10     -11.9194      2.00000
     11     -11.6897      2.00000
     12     -11.6897      2.00000
     13      -8.2399      2.00000
     14      -8.2399      2.00000
     15      -6.5682      2.00000
     16      -6.5682      2.00000
     17      -5.6456      2.00000
     18      -5.6456      2.00000
     19       6.4971      0.00000
     20       6.4971      0.00000
     21       9.0919      0.00000
     22       9.0919      0.00000
     23      10.3261      0.00000
     24      10.3261      0.00000
     25      15.0109      0.00000

 k-point   218 :       0.3333    0.2222    0.5000
  band No.  band energies     occupation 
      1     -24.0222      2.00000
      2     -24.0222      2.00000
      3     -12.4137      2.00000
      4     -12.4137      2.00000
      5     -12.3062      2.00000
      6     -12.3062      2.00000
      7     -12.0848      2.00000
      8     -12.0848      2.00000
      9     -11.9319      2.00000
     10     -11.9319      2.00000
     11     -11.6363      2.00000
     12     -11.6363      2.00000
     13      -8.3591      2.00000
     14      -8.3591      2.00000
     15      -6.7406      2.00000
     16      -6.7406      2.00000
     17      -5.6259      2.00000
     18      -5.6259      2.00000
     19       6.8951      0.00000
     20       6.8951      0.00000
     21       8.8754      0.00000
     22       8.8754      0.00000
     23      10.0021      0.00000
     24      10.0021      0.00000
     25      15.3768      0.00000

 k-point   219 :       0.3889    0.2222    0.5000
  band No.  band energies     occupation 
      1     -24.0139      2.00000
      2     -24.0139      2.00000
      3     -12.4094      2.00000
      4     -12.4094      2.00000
      5     -12.3088      2.00000
      6     -12.3088      2.00000
      7     -12.0611      2.00000
      8     -12.0611      2.00000
      9     -11.9404      2.00000
     10     -11.9404      2.00000
     11     -11.6155      2.00000
     12     -11.6155      2.00000
     13      -8.4017      2.00000
     14      -8.4017      2.00000
     15      -6.8016      2.00000
     16      -6.8016      2.00000
     17      -5.6186      2.00000
     18      -5.6186      2.00000
     19       7.0699      0.00000
     20       7.0699      0.00000
     21       8.7592      0.00000
     22       8.7592      0.00000
     23       9.8935      0.00000
     24       9.8935      0.00000
     25      15.5377      0.00000

 k-point   220 :       0.2778    0.2778    0.5000
  band No.  band energies     occupation 
      1     -24.0197      2.00000
      2     -24.0197      2.00000
      3     -12.4034      2.00000
      4     -12.4034      2.00000
      5     -12.3089      2.00000
      6     -12.3089      2.00000
      7     -12.0887      2.00000
      8     -12.0887      2.00000
      9     -11.9363      2.00000
     10     -11.9363      2.00000
     11     -11.6290      2.00000
     12     -11.6290      2.00000
     13      -8.3019      2.00000
     14      -8.3019      2.00000
     15      -6.8404      2.00000
     16      -6.8404      2.00000
     17      -5.6188      2.00000
     18      -5.6188      2.00000
     19       7.0435      0.00000
     20       7.0435      0.00000
     21       8.9527      0.00000
     22       8.9527      0.00000
     23       9.7415      0.00000
     24       9.7415      0.00000
     25      15.5064      0.00000

 k-point   221 :       0.3333    0.2778    0.5000
  band No.  band energies     occupation 
      1     -24.0071      2.00000
      2     -24.0071      2.00000
      3     -12.3882      2.00000
      4     -12.3882      2.00000
      5     -12.3195      2.00000
      6     -12.3195      2.00000
      7     -12.0464      2.00000
      8     -12.0464      2.00000
      9     -11.9587      2.00000
     10     -11.9587      2.00000
     11     -11.5926      2.00000
     12     -11.5926      2.00000
     13      -8.3241      2.00000
     14      -8.3241      2.00000
     15      -7.0031      2.00000
     16      -7.0031      2.00000
     17      -5.6062      2.00000
     18      -5.6062      2.00000
     19       7.5083      0.00000
     20       7.5083      0.00000
     21       8.7040      0.00000
     22       8.7040      0.00000
     23       9.4286      0.00000
     24       9.4286      0.00000
     25      15.9238      0.00000

 k-point   222 :       0.3333    0.3333    0.5000
  band No.  band energies     occupation 
      1     -24.0013      2.00000
      2     -24.0013      2.00000
      3     -12.3743      2.00000
      4     -12.3743      2.00000
      5     -12.3296      2.00000
      6     -12.3296      2.00000
      7     -12.0186      2.00000
      8     -12.0186      2.00000
      9     -11.9820      2.00000
     10     -11.9820      2.00000
     11     -11.5767      2.00000
     12     -11.5767      2.00000
     13      -8.2991      2.00000
     14      -8.2991      2.00000
     15      -7.1083      2.00000
     16      -7.1083      2.00000
     17      -5.5974      2.00000
     18      -5.5974      2.00000
     19       7.9873      0.00000
     20       7.9873      0.00000
     21       8.3720      0.00000
     22       8.3720      0.00000
     23       9.2377      0.00000
     24       9.2377      0.00000
     25      16.2618      0.00000


--------------------------------------------------------------------------------------------------------


 soft charge-density along one line, spin component           1
         0         1         2         3         4         5         6         7         8         9
 total charge-density along one line
 
 pseudopotential strength for first ion, spin component:           1
-10.874   0.000  -0.000  -0.002   0.000 -11.164   0.000  -0.000
  0.000 -10.881   0.000  -0.000  -0.002   0.000 -11.170   0.000
 -0.000   0.000 -10.880  -0.000   0.000  -0.000   0.000 -11.169
 -0.002  -0.000  -0.000 -10.881   0.000  -0.002  -0.000  -0.000
  0.000  -0.002   0.000   0.000 -10.874   0.000  -0.002   0.000
-11.164   0.000  -0.000  -0.002   0.000 -11.383   0.000  -0.000
  0.000 -11.170   0.000  -0.000  -0.002   0.000 -11.389   0.000
 -0.000   0.000 -11.169  -0.000   0.000  -0.000   0.000 -11.388
 -0.002  -0.000  -0.000 -11.170   0.000  -0.002  -0.000  -0.000
  0.000  -0.002   0.000   0.000 -11.164   0.000  -0.002   0.000
 -0.000  -0.000  -0.000   0.000   0.000  -0.000  -0.000  -0.000
 -0.000  -0.000  -0.001   0.000   0.000  -0.000  -0.000  -0.001
  0.000  -0.003   0.000   0.000   0.003   0.000  -0.002   0.000
  0.000  -0.000   0.004   0.000  -0.000   0.000  -0.000   0.003
  0.003   0.000  -0.000  -0.003   0.000   0.003   0.000  -0.000
  0.000  -0.005   0.000   0.000   0.006   0.000  -0.004   0.000
  0.000  -0.000   0.007   0.000  -0.000   0.000  -0.000   0.006
  0.006   0.000  -0.000  -0.005   0.000   0.006   0.000  -0.000
 total augmentation occupancy for first ion, spin component:           1
  7.368   0.000  -0.000  -1.253  -0.000  -4.422  -0.000   0.000   1.244   0.000   0.000   0.000   0.000  -0.000  -0.846  -0.000
  0.000   6.308   0.000  -0.000  -1.253  -0.000  -3.368  -0.000   0.000   1.244   0.000   0.000   0.567  -0.000   0.000  -0.138
 -0.000   0.000   8.265  -0.000   0.000   0.000  -0.000  -5.305   0.000  -0.000   0.085  -0.025   0.000  -1.001   0.000  -0.000
 -1.253  -0.000  -0.000   6.308  -0.000   1.244   0.000   0.000  -3.368   0.000   0.000  -0.000  -0.000   0.000   0.567   0.000
 -0.000  -1.253   0.000  -0.000   7.368   0.000   1.244  -0.000   0.000  -4.422  -0.000   0.000  -0.846  -0.000  -0.000   0.206
 -4.422  -0.000   0.000   1.244   0.000   3.443   0.000  -0.000  -1.234  -0.000  -0.000   0.000  -0.000   0.000   0.839   0.000
 -0.000  -3.368  -0.000   0.000   1.244   0.000   2.396   0.000  -0.000  -1.234  -0.000   0.000  -0.561   0.000  -0.000   0.150
  0.000  -0.000  -5.305   0.000  -0.000  -0.000   0.000   4.312  -0.000   0.000  -0.088   0.028  -0.000   0.991  -0.000   0.000
  1.244   0.000   0.000  -3.368   0.000  -1.234  -0.000  -0.000   2.396  -0.000  -0.000   0.000   0.000  -0.000  -0.561  -0.000
  0.000   1.244  -0.000   0.000  -4.422  -0.000  -1.234   0.000  -0.000   3.443   0.000  -0.000   0.839  -0.000   0.000  -0.224
  0.000   0.000   0.085   0.000  -0.000  -0.000  -0.000  -0.088  -0.000   0.000   3.260  -1.165   0.000   0.007   0.000  -0.000
  0.000   0.000  -0.025  -0.000   0.000   0.000   0.000   0.028   0.000  -0.000  -1.165   0.435   0.000  -0.003  -0.000  -0.000
  0.000   0.567   0.000  -0.000  -0.846  -0.000  -0.561  -0.000   0.000   0.839   0.000   0.000   0.459  -0.000   0.000  -0.130
 -0.000  -0.000  -1.001   0.000  -0.000   0.000   0.000   0.991  -0.000  -0.000   0.007  -0.003  -0.000   0.442   0.000   0.000
 -0.846   0.000   0.000   0.567  -0.000   0.839  -0.000  -0.000  -0.561   0.000   0.000  -0.000   0.000   0.000   0.459   0.000
 -0.000  -0.138  -0.000   0.000   0.206   0.000   0.150   0.000  -0.000  -0.224  -0.000  -0.000  -0.130   0.000   0.000   0.040
  0.000   0.000   0.243  -0.000   0.000  -0.000  -0.000  -0.264   0.000   0.000  -0.002   0.001   0.000  -0.125  -0.000  -0.000
  0.206  -0.000   0.000  -0.138   0.000  -0.224   0.000  -0.000   0.150  -0.000  -0.000   0.000  -0.000  -0.000  -0.130   0.000


------------------------ aborting loop because EDIFF is reached ----------------------------------------


    CHARGE:  cpu time    0.5359: real time    0.6521
    FORLOC:  cpu time    0.0004: real time    0.0005
    FORHF :  cpu time 5588.5224: real time 5591.1004
    FORNL :  cpu time    0.0630: real time    0.0630
    FORCOR:  cpu time    0.0428: real time    0.0428
    FORHAR:  cpu time    0.0019: real time    0.0019
    MIXING:  cpu time    0.0001: real time    0.0001
    OFIELD:  cpu time    0.0000: real time    0.0000

 VOLUME and BASIS-vectors are now :
 -----------------------------------------------------------------------------
  energy-cutoff  :      400.00
  volume of cell :       47.40
      direct lattice vectors                 reciprocal lattice vectors
     3.237350941  0.000000000  0.000000000     0.308894531  0.178340341  0.000000000
    -1.618675470  2.803628156  0.000000000     0.000000000  0.356680681  0.000000000
     0.000000000  0.000000000  5.222061157     0.000000000  0.000000000  0.191495268

  length of vectors
     3.237350941  3.237350941  5.222061157     0.356680681  0.356680681  0.191495268


 FORCES acting on ions
    electron-ion (+dipol)            ewald-force                    non-local-force                 convergence-correction
 -----------------------------------------------------------------------------------------------
   -.275E-04 0.176E-04 -.130E+01   -.143E-04 0.826E-05 0.129E+01   0.173E-16 0.139E-16 -.702E-01   -.125E-07 -.346E-07 -.174E-04
   0.281E-04 -.161E-04 -.130E+01   0.143E-04 -.826E-05 0.129E+01   -.278E-16 -.139E-16 -.702E-01   0.677E-08 0.483E-07 -.197E-04
   -.281E-04 -.246E-04 0.121E+01   -.133E-04 0.766E-05 -.129E+01   0.173E-17 0.000E+00 0.857E-01   -.339E-08 -.436E-08 -.567E-05
   0.201E-04 -.528E-04 0.121E+01   0.133E-04 -.766E-05 -.129E+01   -.867E-18 0.000E+00 0.857E-01   0.196E-07 0.302E-07 -.444E-05
 -----------------------------------------------------------------------------------------------
   -.782E-05 -.762E-04 -.146E+00   0.124E-13 -.702E-14 0.000E+00   -.954E-17 0.000E+00 0.310E-01   0.105E-07 0.395E-07 -.473E-04
 
 
 POSITION                                       TOTAL-FORCE (eV/Angst)
 -----------------------------------------------------------------------------------
      1.61868      0.93454      2.61412        -0.000000      0.000000     -0.042317
     -0.00000      1.86909      0.00309         0.000000      0.000000     -0.042317
      1.61868      0.93454      4.59394         0.000000     -0.000000      0.042317
     -0.00000      1.86909      1.98291         0.000000      0.000000      0.042317
 -----------------------------------------------------------------------------------
    total drift:                               -0.000008     -0.000076     -0.072865


--------------------------------------------------------------------------------------------------------



  FREE ENERGIE OF THE ION-ELECTRON SYSTEM (eV)
  ---------------------------------------------------
  free  energy   TOTEN  =     -1125.78113267 eV

  energy  without entropy=    -1125.78113267  energy(sigma->0) =    -1125.78113267
 


--------------------------------------------------------------------------------------------------------


    POTLOK:  cpu time    0.0391: real time    0.0391


--------------------------------------------------------------------------------------------------------


 writing wavefunctions
     LOOP+:  cpu time**********: real time**********
    4ORBIT:  cpu time    0.0000: real time    0.0000
 BZINTS: Fermi energy: -4.561277; 36.000000 electrons
         Band energy:-417.673454;  BLOECHL correction:  0.000000

 total amount of memory used by VASP MPI-rank0    52153. kBytes
=======================================================================

   base      :      30000. kBytes
   nonl-proj :      15360. kBytes
   fftplans  :        600. kBytes
   grid      :       1052. kBytes
   one-center:         15. kBytes
   HF        :         64. kBytes
   nonlr-proj:        445. kBytes
   wavefun   :       4617. kBytes
 
  
  
 General timing and accounting informations for this job:
 ========================================================
  
                  Total CPU time used (sec):   288261.250
                            User time (sec):   238206.561
                          System time (sec):    50054.691
                         Elapsed time (sec):   288439.321
  
                   Maximum memory used (kb):      240972.
                   Average memory used (kb):           0.
  
                          Minor page faults:       127193
                          Major page faults:           17
                 Voluntary context switches:         4602
