<?xml version="1.0" encoding="ISO-8859-1"?>
<modeling>
 <generator>
  <i name="program" type="string">vasp </i>
  <i name="version" type="string">5.4.4.18Apr17-6-g9f103f2a35  </i>
  <i name="subversion" type="string">(build Sep 05 2023 16:06:33) complex            parallel </i>
  <i name="platform" type="string">LinuxIFC </i>
  <i name="date" type="string">2023 11 30 </i>
  <i name="time" type="string">12:04:23 </i>
 </generator>
 <incar>
  <i type="string" name="SYSTEM"> Mg1O1</i>
  <i type="int" name="ISTART">     1</i>
  <i type="string" name="PREC">acc</i>
  <i type="string" name="ALGO"> Normal</i>
  <i type="int" name="NSIM">     4</i>
  <i type="int" name="NELM">    40</i>
  <i type="int" name="IBRION">     2</i>
  <i name="EDIFF">      0.00000100</i>
  <i type="int" name="NSW">     0</i>
  <i type="int" name="ISIF">     0</i>
  <i name="POTIM">      0.25000000</i>
  <i type="int" name="NEDOS">  1401</i>
  <i type="logical" name="LPLANE"> T  </i>
  <i type="int" name="ISMEAR">    -5</i>
  <i name="SIGMA">      0.00000000</i>
  <i type="int" name="NWRITE">     0</i>
  <v type="int" name="KPOINT_BSE">    -1     0     0     0</v>
  <i type="int" name="NELM">    40</i>
  <i type="logical" name="LHFCALC"> T  </i>
  <i type="string" name="METAGGA"> SCAN</i>
 </incar>
 <structure name="primitive_cell" >
  <crystal>
   <varray name="basis" >
    <v>       3.23735094       0.00000000       0.00000000 </v>
    <v>      -1.61867547       2.80362816       0.00000000 </v>
    <v>       0.00000000       0.00000000       5.22206116 </v>
   </varray>
   <i name="volume">     47.39714119 </i>
   <varray name="rec_basis" >
    <v>       0.30889453       0.17834034       0.00000000 </v>
    <v>       0.00000000       0.35668068       0.00000000 </v>
    <v>       0.00000000       0.00000000       0.19149527 </v>
   </varray>
  </crystal>
  <varray name="positions" >
   <v>      -0.33333331       0.33333334      -0.49940830 </v>
   <v>       0.33333334      -0.33333331       0.37971830 </v>
   <v>      -0.33333331       0.33333334      -0.12028170 </v>
   <v>       0.33333334      -0.33333331       0.00059170 </v>
  </varray>
 </structure>
 <varray name="primitive_index" >
  <v type="int" >        1 </v>
  <v type="int" >        4 </v>
  <v type="int" >        3 </v>
  <v type="int" >        2 </v>
 </varray>
 <kpoints>
  <generation param="Gamma">
   <v type="int" name="divisions">      18       18       10 </v>
   <v name="usershift">      0.00000000       0.00000000       0.00000000 </v>
   <v name="genvec1">      0.05555556       0.00000000       0.00000000 </v>
   <v name="genvec2">      0.00000000       0.05555556       0.00000000 </v>
   <v name="genvec3">      0.00000000       0.00000000       0.10000000 </v>
   <v name="shift">      0.00000000       0.00000000       0.00000000 </v>
  </generation>
  <varray name="kpointlist" >
   <v>       0.00000000       0.00000000       0.00000000 </v>
   <v>       0.05555556       0.00000000       0.00000000 </v>
   <v>       0.11111111       0.00000000       0.00000000 </v>
   <v>       0.16666667      -0.00000000       0.00000000 </v>
   <v>       0.22222222      -0.00000000       0.00000000 </v>
   <v>       0.27777778      -0.00000000       0.00000000 </v>
   <v>       0.33333333      -0.00000000       0.00000000 </v>
   <v>       0.38888889      -0.00000000       0.00000000 </v>
   <v>       0.44444444      -0.00000000       0.00000000 </v>
   <v>       0.50000000      -0.00000000       0.00000000 </v>
   <v>       0.05555556       0.05555556       0.00000000 </v>
   <v>       0.11111111       0.05555556       0.00000000 </v>
   <v>       0.16666667       0.05555556       0.00000000 </v>
   <v>       0.22222222       0.05555556       0.00000000 </v>
   <v>       0.27777778       0.05555556       0.00000000 </v>
   <v>       0.33333333       0.05555556       0.00000000 </v>
   <v>       0.38888889       0.05555556       0.00000000 </v>
   <v>       0.44444444       0.05555556       0.00000000 </v>
   <v>       0.11111111       0.11111111       0.00000000 </v>
   <v>       0.16666667       0.11111111       0.00000000 </v>
   <v>       0.22222222       0.11111111       0.00000000 </v>
   <v>       0.27777778       0.11111111       0.00000000 </v>
   <v>       0.33333333       0.11111111       0.00000000 </v>
   <v>       0.38888889       0.11111111       0.00000000 </v>
   <v>       0.44444444       0.11111111       0.00000000 </v>
   <v>       0.16666667       0.16666667       0.00000000 </v>
   <v>       0.22222222       0.16666667       0.00000000 </v>
   <v>       0.27777778       0.16666667       0.00000000 </v>
   <v>       0.33333333       0.16666667       0.00000000 </v>
   <v>       0.38888889       0.16666667       0.00000000 </v>
   <v>       0.22222222       0.22222222       0.00000000 </v>
   <v>       0.27777778       0.22222222       0.00000000 </v>
   <v>       0.33333333       0.22222222       0.00000000 </v>
   <v>       0.38888889       0.22222222       0.00000000 </v>
   <v>       0.27777778       0.27777778       0.00000000 </v>
   <v>       0.33333333       0.27777778       0.00000000 </v>
   <v>       0.33333333       0.33333333       0.00000000 </v>
   <v>       0.00000000       0.00000000       0.10000000 </v>
   <v>       0.05555556       0.00000000       0.10000000 </v>
   <v>       0.11111111       0.00000000       0.10000000 </v>
   <v>       0.16666667      -0.00000000       0.10000000 </v>
   <v>       0.22222222      -0.00000000       0.10000000 </v>
   <v>       0.27777778      -0.00000000       0.10000000 </v>
   <v>       0.33333333      -0.00000000       0.10000000 </v>
   <v>       0.38888889      -0.00000000       0.10000000 </v>
   <v>       0.44444444      -0.00000000       0.10000000 </v>
   <v>       0.50000000      -0.00000000       0.10000000 </v>
   <v>       0.05555556       0.05555556       0.10000000 </v>
   <v>       0.11111111       0.05555556       0.10000000 </v>
   <v>       0.16666667       0.05555556       0.10000000 </v>
   <v>       0.22222222       0.05555556       0.10000000 </v>
   <v>       0.27777778       0.05555556       0.10000000 </v>
   <v>       0.33333333       0.05555556       0.10000000 </v>
   <v>       0.38888889       0.05555556       0.10000000 </v>
   <v>       0.44444444       0.05555556       0.10000000 </v>
   <v>       0.11111111       0.11111111       0.10000000 </v>
   <v>       0.16666667       0.11111111       0.10000000 </v>
   <v>       0.22222222       0.11111111       0.10000000 </v>
   <v>       0.27777778       0.11111111       0.10000000 </v>
   <v>       0.33333333       0.11111111       0.10000000 </v>
   <v>       0.38888889       0.11111111       0.10000000 </v>
   <v>       0.44444444       0.11111111       0.10000000 </v>
   <v>       0.16666667       0.16666667       0.10000000 </v>
   <v>       0.22222222       0.16666667       0.10000000 </v>
   <v>       0.27777778       0.16666667       0.10000000 </v>
   <v>       0.33333333       0.16666667       0.10000000 </v>
   <v>       0.38888889       0.16666667       0.10000000 </v>
   <v>       0.22222222       0.22222222       0.10000000 </v>
   <v>       0.27777778       0.22222222       0.10000000 </v>
   <v>       0.33333333       0.22222222       0.10000000 </v>
   <v>       0.38888889       0.22222222       0.10000000 </v>
   <v>       0.27777778       0.27777778       0.10000000 </v>
   <v>       0.33333333       0.27777778       0.10000000 </v>
   <v>       0.33333333       0.33333333       0.10000000 </v>
   <v>       0.00000000       0.00000000       0.20000000 </v>
   <v>       0.05555556       0.00000000       0.20000000 </v>
   <v>       0.11111111       0.00000000       0.20000000 </v>
   <v>       0.16666667      -0.00000000       0.20000000 </v>
   <v>       0.22222222      -0.00000000       0.20000000 </v>
   <v>       0.27777778      -0.00000000       0.20000000 </v>
   <v>       0.33333333      -0.00000000       0.20000000 </v>
   <v>       0.38888889      -0.00000000       0.20000000 </v>
   <v>       0.44444444      -0.00000000       0.20000000 </v>
   <v>       0.50000000      -0.00000000       0.20000000 </v>
   <v>       0.05555556       0.05555556       0.20000000 </v>
   <v>       0.11111111       0.05555556       0.20000000 </v>
   <v>       0.16666667       0.05555556       0.20000000 </v>
   <v>       0.22222222       0.05555556       0.20000000 </v>
   <v>       0.27777778       0.05555556       0.20000000 </v>
   <v>       0.33333333       0.05555556       0.20000000 </v>
   <v>       0.38888889       0.05555556       0.20000000 </v>
   <v>       0.44444444       0.05555556       0.20000000 </v>
   <v>       0.11111111       0.11111111       0.20000000 </v>
   <v>       0.16666667       0.11111111       0.20000000 </v>
   <v>       0.22222222       0.11111111       0.20000000 </v>
   <v>       0.27777778       0.11111111       0.20000000 </v>
   <v>       0.33333333       0.11111111       0.20000000 </v>
   <v>       0.38888889       0.11111111       0.20000000 </v>
   <v>       0.44444444       0.11111111       0.20000000 </v>
   <v>       0.16666667       0.16666667       0.20000000 </v>
   <v>       0.22222222       0.16666667       0.20000000 </v>
   <v>       0.27777778       0.16666667       0.20000000 </v>
   <v>       0.33333333       0.16666667       0.20000000 </v>
   <v>       0.38888889       0.16666667       0.20000000 </v>
   <v>       0.22222222       0.22222222       0.20000000 </v>
   <v>       0.27777778       0.22222222       0.20000000 </v>
   <v>       0.33333333       0.22222222       0.20000000 </v>
   <v>       0.38888889       0.22222222       0.20000000 </v>
   <v>       0.27777778       0.27777778       0.20000000 </v>
   <v>       0.33333333       0.27777778       0.20000000 </v>
   <v>       0.33333333       0.33333333       0.20000000 </v>
   <v>       0.00000000       0.00000000       0.30000000 </v>
   <v>       0.05555556       0.00000000       0.30000000 </v>
   <v>       0.11111111       0.00000000       0.30000000 </v>
   <v>       0.16666667      -0.00000000       0.30000000 </v>
   <v>       0.22222222      -0.00000000       0.30000000 </v>
   <v>       0.27777778      -0.00000000       0.30000000 </v>
   <v>       0.33333333      -0.00000000       0.30000000 </v>
   <v>       0.38888889      -0.00000000       0.30000000 </v>
   <v>       0.44444444      -0.00000000       0.30000000 </v>
   <v>       0.50000000      -0.00000000       0.30000000 </v>
   <v>       0.05555556       0.05555556       0.30000000 </v>
   <v>       0.11111111       0.05555556       0.30000000 </v>
   <v>       0.16666667       0.05555556       0.30000000 </v>
   <v>       0.22222222       0.05555556       0.30000000 </v>
   <v>       0.27777778       0.05555556       0.30000000 </v>
   <v>       0.33333333       0.05555556       0.30000000 </v>
   <v>       0.38888889       0.05555556       0.30000000 </v>
   <v>       0.44444444       0.05555556       0.30000000 </v>
   <v>       0.11111111       0.11111111       0.30000000 </v>
   <v>       0.16666667       0.11111111       0.30000000 </v>
   <v>       0.22222222       0.11111111       0.30000000 </v>
   <v>       0.27777778       0.11111111       0.30000000 </v>
   <v>       0.33333333       0.11111111       0.30000000 </v>
   <v>       0.38888889       0.11111111       0.30000000 </v>
   <v>       0.44444444       0.11111111       0.30000000 </v>
   <v>       0.16666667       0.16666667       0.30000000 </v>
   <v>       0.22222222       0.16666667       0.30000000 </v>
   <v>       0.27777778       0.16666667       0.30000000 </v>
   <v>       0.33333333       0.16666667       0.30000000 </v>
   <v>       0.38888889       0.16666667       0.30000000 </v>
   <v>       0.22222222       0.22222222       0.30000000 </v>
   <v>       0.27777778       0.22222222       0.30000000 </v>
   <v>       0.33333333       0.22222222       0.30000000 </v>
   <v>       0.38888889       0.22222222       0.30000000 </v>
   <v>       0.27777778       0.27777778       0.30000000 </v>
   <v>       0.33333333       0.27777778       0.30000000 </v>
   <v>       0.33333333       0.33333333       0.30000000 </v>
   <v>       0.00000000       0.00000000       0.40000000 </v>
   <v>       0.05555556       0.00000000       0.40000000 </v>
   <v>       0.11111111       0.00000000       0.40000000 </v>
   <v>       0.16666667      -0.00000000       0.40000000 </v>
   <v>       0.22222222      -0.00000000       0.40000000 </v>
   <v>       0.27777778      -0.00000000       0.40000000 </v>
   <v>       0.33333333      -0.00000000       0.40000000 </v>
   <v>       0.38888889      -0.00000000       0.40000000 </v>
   <v>       0.44444444      -0.00000000       0.40000000 </v>
   <v>       0.50000000      -0.00000000       0.40000000 </v>
   <v>       0.05555556       0.05555556       0.40000000 </v>
   <v>       0.11111111       0.05555556       0.40000000 </v>
   <v>       0.16666667       0.05555556       0.40000000 </v>
   <v>       0.22222222       0.05555556       0.40000000 </v>
   <v>       0.27777778       0.05555556       0.40000000 </v>
   <v>       0.33333333       0.05555556       0.40000000 </v>
   <v>       0.38888889       0.05555556       0.40000000 </v>
   <v>       0.44444444       0.05555556       0.40000000 </v>
   <v>       0.11111111       0.11111111       0.40000000 </v>
   <v>       0.16666667       0.11111111       0.40000000 </v>
   <v>       0.22222222       0.11111111       0.40000000 </v>
   <v>       0.27777778       0.11111111       0.40000000 </v>
   <v>       0.33333333       0.11111111       0.40000000 </v>
   <v>       0.38888889       0.11111111       0.40000000 </v>
   <v>       0.44444444       0.11111111       0.40000000 </v>
   <v>       0.16666667       0.16666667       0.40000000 </v>
   <v>       0.22222222       0.16666667       0.40000000 </v>
   <v>       0.27777778       0.16666667       0.40000000 </v>
   <v>       0.33333333       0.16666667       0.40000000 </v>
   <v>       0.38888889       0.16666667       0.40000000 </v>
   <v>       0.22222222       0.22222222       0.40000000 </v>
   <v>       0.27777778       0.22222222       0.40000000 </v>
   <v>       0.33333333       0.22222222       0.40000000 </v>
   <v>       0.38888889       0.22222222       0.40000000 </v>
   <v>       0.27777778       0.27777778       0.40000000 </v>
   <v>       0.33333333       0.27777778       0.40000000 </v>
   <v>       0.33333333       0.33333333       0.40000000 </v>
   <v>       0.00000000       0.00000000       0.50000000 </v>
   <v>       0.05555556       0.00000000       0.50000000 </v>
   <v>       0.11111111       0.00000000       0.50000000 </v>
   <v>       0.16666667      -0.00000000       0.50000000 </v>
   <v>       0.22222222      -0.00000000       0.50000000 </v>
   <v>       0.27777778      -0.00000000       0.50000000 </v>
   <v>       0.33333333      -0.00000000       0.50000000 </v>
   <v>       0.38888889      -0.00000000       0.50000000 </v>
   <v>       0.44444444      -0.00000000       0.50000000 </v>
   <v>       0.50000000      -0.00000000       0.50000000 </v>
   <v>       0.05555556       0.05555556       0.50000000 </v>
   <v>       0.11111111       0.05555556       0.50000000 </v>
   <v>       0.16666667       0.05555556       0.50000000 </v>
   <v>       0.22222222       0.05555556       0.50000000 </v>
   <v>       0.27777778       0.05555556       0.50000000 </v>
   <v>       0.33333333       0.05555556       0.50000000 </v>
   <v>       0.38888889       0.05555556       0.50000000 </v>
   <v>       0.44444444       0.05555556       0.50000000 </v>
   <v>       0.11111111       0.11111111       0.50000000 </v>
   <v>       0.16666667       0.11111111       0.50000000 </v>
   <v>       0.22222222       0.11111111       0.50000000 </v>
   <v>       0.27777778       0.11111111       0.50000000 </v>
   <v>       0.33333333       0.11111111       0.50000000 </v>
   <v>       0.38888889       0.11111111       0.50000000 </v>
   <v>       0.44444444       0.11111111       0.50000000 </v>
   <v>       0.16666667       0.16666667       0.50000000 </v>
   <v>       0.22222222       0.16666667       0.50000000 </v>
   <v>       0.27777778       0.16666667       0.50000000 </v>
   <v>       0.33333333       0.16666667       0.50000000 </v>
   <v>       0.38888889       0.16666667       0.50000000 </v>
   <v>       0.22222222       0.22222222       0.50000000 </v>
   <v>       0.27777778       0.22222222       0.50000000 </v>
   <v>       0.33333333       0.22222222       0.50000000 </v>
   <v>       0.38888889       0.22222222       0.50000000 </v>
   <v>       0.27777778       0.27777778       0.50000000 </v>
   <v>       0.33333333       0.27777778       0.50000000 </v>
   <v>       0.33333333       0.33333333       0.50000000 </v>
  </varray>
  <varray name="weights" >
   <v>       0.00030864 </v>
   <v>       0.00185185 </v>
   <v>       0.00185185 </v>
   <v>       0.00185185 </v>
   <v>       0.00185185 </v>
   <v>       0.00185185 </v>
   <v>       0.00185185 </v>
   <v>       0.00185185 </v>
   <v>       0.00185185 </v>
   <v>       0.00092593 </v>
   <v>       0.00185185 </v>
   <v>       0.00370370 </v>
   <v>       0.00370370 </v>
   <v>       0.00370370 </v>
   <v>       0.00370370 </v>
   <v>       0.00370370 </v>
   <v>       0.00370370 </v>
   <v>       0.00370370 </v>
   <v>       0.00185185 </v>
   <v>       0.00370370 </v>
   <v>       0.00370370 </v>
   <v>       0.00370370 </v>
   <v>       0.00370370 </v>
   <v>       0.00370370 </v>
   <v>       0.00185185 </v>
   <v>       0.00185185 </v>
   <v>       0.00370370 </v>
   <v>       0.00370370 </v>
   <v>       0.00370370 </v>
   <v>       0.00370370 </v>
   <v>       0.00185185 </v>
   <v>       0.00370370 </v>
   <v>       0.00370370 </v>
   <v>       0.00185185 </v>
   <v>       0.00185185 </v>
   <v>       0.00370370 </v>
   <v>       0.00061728 </v>
   <v>       0.00061728 </v>
   <v>       0.00370370 </v>
   <v>       0.00370370 </v>
   <v>       0.00370370 </v>
   <v>       0.00370370 </v>
   <v>       0.00370370 </v>
   <v>       0.00370370 </v>
   <v>       0.00370370 </v>
   <v>       0.00370370 </v>
   <v>       0.00185185 </v>
   <v>       0.00370370 </v>
   <v>       0.00740741 </v>
   <v>       0.00740741 </v>
   <v>       0.00740741 </v>
   <v>       0.00740741 </v>
   <v>       0.00740741 </v>
   <v>       0.00740741 </v>
   <v>       0.00740741 </v>
   <v>       0.00370370 </v>
   <v>       0.00740741 </v>
   <v>       0.00740741 </v>
   <v>       0.00740741 </v>
   <v>       0.00740741 </v>
   <v>       0.00740741 </v>
   <v>       0.00370370 </v>
   <v>       0.00370370 </v>
   <v>       0.00740741 </v>
   <v>       0.00740741 </v>
   <v>       0.00740741 </v>
   <v>       0.00740741 </v>
   <v>       0.00370370 </v>
   <v>       0.00740741 </v>
   <v>       0.00740741 </v>
   <v>       0.00370370 </v>
   <v>       0.00370370 </v>
   <v>       0.00740741 </v>
   <v>       0.00123457 </v>
   <v>       0.00061728 </v>
   <v>       0.00370370 </v>
   <v>       0.00370370 </v>
   <v>       0.00370370 </v>
   <v>       0.00370370 </v>
   <v>       0.00370370 </v>
   <v>       0.00370370 </v>
   <v>       0.00370370 </v>
   <v>       0.00370370 </v>
   <v>       0.00185185 </v>
   <v>       0.00370370 </v>
   <v>       0.00740741 </v>
   <v>       0.00740741 </v>
   <v>       0.00740741 </v>
   <v>       0.00740741 </v>
   <v>       0.00740741 </v>
   <v>       0.00740741 </v>
   <v>       0.00740741 </v>
   <v>       0.00370370 </v>
   <v>       0.00740741 </v>
   <v>       0.00740741 </v>
   <v>       0.00740741 </v>
   <v>       0.00740741 </v>
   <v>       0.00740741 </v>
   <v>       0.00370370 </v>
   <v>       0.00370370 </v>
   <v>       0.00740741 </v>
   <v>       0.00740741 </v>
   <v>       0.00740741 </v>
   <v>       0.00740741 </v>
   <v>       0.00370370 </v>
   <v>       0.00740741 </v>
   <v>       0.00740741 </v>
   <v>       0.00370370 </v>
   <v>       0.00370370 </v>
   <v>       0.00740741 </v>
   <v>       0.00123457 </v>
   <v>       0.00061728 </v>
   <v>       0.00370370 </v>
   <v>       0.00370370 </v>
   <v>       0.00370370 </v>
   <v>       0.00370370 </v>
   <v>       0.00370370 </v>
   <v>       0.00370370 </v>
   <v>       0.00370370 </v>
   <v>       0.00370370 </v>
   <v>       0.00185185 </v>
   <v>       0.00370370 </v>
   <v>       0.00740741 </v>
   <v>       0.00740741 </v>
   <v>       0.00740741 </v>
   <v>       0.00740741 </v>
   <v>       0.00740741 </v>
   <v>       0.00740741 </v>
   <v>       0.00740741 </v>
   <v>       0.00370370 </v>
   <v>       0.00740741 </v>
   <v>       0.00740741 </v>
   <v>       0.00740741 </v>
   <v>       0.00740741 </v>
   <v>       0.00740741 </v>
   <v>       0.00370370 </v>
   <v>       0.00370370 </v>
   <v>       0.00740741 </v>
   <v>       0.00740741 </v>
   <v>       0.00740741 </v>
   <v>       0.00740741 </v>
   <v>       0.00370370 </v>
   <v>       0.00740741 </v>
   <v>       0.00740741 </v>
   <v>       0.00370370 </v>
   <v>       0.00370370 </v>
   <v>       0.00740741 </v>
   <v>       0.00123457 </v>
   <v>       0.00061728 </v>
   <v>       0.00370370 </v>
   <v>       0.00370370 </v>
   <v>       0.00370370 </v>
   <v>       0.00370370 </v>
   <v>       0.00370370 </v>
   <v>       0.00370370 </v>
   <v>       0.00370370 </v>
   <v>       0.00370370 </v>
   <v>       0.00185185 </v>
   <v>       0.00370370 </v>
   <v>       0.00740741 </v>
   <v>       0.00740741 </v>
   <v>       0.00740741 </v>
   <v>       0.00740741 </v>
   <v>       0.00740741 </v>
   <v>       0.00740741 </v>
   <v>       0.00740741 </v>
   <v>       0.00370370 </v>
   <v>       0.00740741 </v>
   <v>       0.00740741 </v>
   <v>       0.00740741 </v>
   <v>       0.00740741 </v>
   <v>       0.00740741 </v>
   <v>       0.00370370 </v>
   <v>       0.00370370 </v>
   <v>       0.00740741 </v>
   <v>       0.00740741 </v>
   <v>       0.00740741 </v>
   <v>       0.00740741 </v>
   <v>       0.00370370 </v>
   <v>       0.00740741 </v>
   <v>       0.00740741 </v>
   <v>       0.00370370 </v>
   <v>       0.00370370 </v>
   <v>       0.00740741 </v>
   <v>       0.00123457 </v>
   <v>       0.00030864 </v>
   <v>       0.00185185 </v>
   <v>       0.00185185 </v>
   <v>       0.00185185 </v>
   <v>       0.00185185 </v>
   <v>       0.00185185 </v>
   <v>       0.00185185 </v>
   <v>       0.00185185 </v>
   <v>       0.00185185 </v>
   <v>       0.00092593 </v>
   <v>       0.00185185 </v>
   <v>       0.00370370 </v>
   <v>       0.00370370 </v>
   <v>       0.00370370 </v>
   <v>       0.00370370 </v>
   <v>       0.00370370 </v>
   <v>       0.00370370 </v>
   <v>       0.00370370 </v>
   <v>       0.00185185 </v>
   <v>       0.00370370 </v>
   <v>       0.00370370 </v>
   <v>       0.00370370 </v>
   <v>       0.00370370 </v>
   <v>       0.00370370 </v>
   <v>       0.00185185 </v>
   <v>       0.00185185 </v>
   <v>       0.00370370 </v>
   <v>       0.00370370 </v>
   <v>       0.00370370 </v>
   <v>       0.00370370 </v>
   <v>       0.00185185 </v>
   <v>       0.00370370 </v>
   <v>       0.00370370 </v>
   <v>       0.00185185 </v>
   <v>       0.00185185 </v>
   <v>       0.00370370 </v>
   <v>       0.00061728 </v>
  </varray>
  <varray name="tetrahedronlist"  type="int" >
   <v type="int" >        8        2        2       11       39 </v>
   <v type="int" >        8        1        2        2       39 </v>
   <v type="int" >        4        1        2       38       39 </v>
   <v type="int" >        4        2       11       39       48 </v>
   <v type="int" >        8        2       39       39       48 </v>
   <v type="int" >        8        2       38       39       39 </v>
   <v type="int" >        8        3       11       12       48 </v>
   <v type="int" >        8        2        3       11       48 </v>
   <v type="int" >        4        2        3       39       48 </v>
   <v type="int" >        4        3       12       48       49 </v>
   <v type="int" >        8        3       40       48       49 </v>
   <v type="int" >        8        3       39       40       48 </v>
   <v type="int" >        8        4       12       13       49 </v>
   <v type="int" >        8        3        4       12       49 </v>
   <v type="int" >        4        3        4       40       49 </v>
   <v type="int" >        4        4       13       49       50 </v>
   <v type="int" >        8        4       41       49       50 </v>
   <v type="int" >        8        4       40       41       49 </v>
   <v type="int" >        8        5       13       14       50 </v>
   <v type="int" >        8        4        5       13       50 </v>
   <v type="int" >        4        4        5       41       50 </v>
   <v type="int" >        4        5       14       50       51 </v>
   <v type="int" >        8        5       42       50       51 </v>
   <v type="int" >        8        5       41       42       50 </v>
   <v type="int" >        8        6       14       15       51 </v>
   <v type="int" >        8        5        6       14       51 </v>
   <v type="int" >        4        5        6       42       51 </v>
   <v type="int" >        4        6       15       51       52 </v>
   <v type="int" >        8        6       43       51       52 </v>
   <v type="int" >        8        6       42       43       51 </v>
   <v type="int" >        8        7       15       16       52 </v>
   <v type="int" >        8        6        7       15       52 </v>
   <v type="int" >        4        6        7       43       52 </v>
   <v type="int" >        4        7       16       52       53 </v>
   <v type="int" >        8        7       44       52       53 </v>
   <v type="int" >        8        7       43       44       52 </v>
   <v type="int" >        8        8       16       17       53 </v>
   <v type="int" >        8        7        8       16       53 </v>
   <v type="int" >        4        7        8       44       53 </v>
   <v type="int" >        4        8       17       53       54 </v>
   <v type="int" >        8        8       45       53       54 </v>
   <v type="int" >        8        8       44       45       53 </v>
   <v type="int" >        8        9       17       18       54 </v>
   <v type="int" >        8        8        9       17       54 </v>
   <v type="int" >        4        8        9       45       54 </v>
   <v type="int" >        4        9       18       54       55 </v>
   <v type="int" >        8        9       46       54       55 </v>
   <v type="int" >        8        9       45       46       54 </v>
   <v type="int" >        8       10       18       18       55 </v>
   <v type="int" >        8        9       10       18       55 </v>
   <v type="int" >        4        9       10       46       55 </v>
   <v type="int" >        4       10       18       55       55 </v>
   <v type="int" >        4       10       47       55       55 </v>
   <v type="int" >        8       10       46       47       55 </v>
   <v type="int" >        8        9       17       18       55 </v>
   <v type="int" >        4        9       10       47       55 </v>
   <v type="int" >        4        9       17       54       55 </v>
   <v type="int" >        8        9       46       47       55 </v>
   <v type="int" >        8        8       16       17       54 </v>
   <v type="int" >        4        8        9       46       54 </v>
   <v type="int" >        4        8       16       53       54 </v>
   <v type="int" >        8        8       45       46       54 </v>
   <v type="int" >        8        7       15       16       53 </v>
   <v type="int" >        4        7        8       45       53 </v>
   <v type="int" >        4        7       15       52       53 </v>
   <v type="int" >        8        7       44       45       53 </v>
   <v type="int" >        8        6       14       15       52 </v>
   <v type="int" >        4        6        7       44       52 </v>
   <v type="int" >        4        6       14       51       52 </v>
   <v type="int" >        8        6       43       44       52 </v>
   <v type="int" >        8        5       13       14       51 </v>
   <v type="int" >        4        5        6       43       51 </v>
   <v type="int" >        4        5       13       50       51 </v>
   <v type="int" >        8        5       42       43       51 </v>
   <v type="int" >        8        4       12       13       50 </v>
   <v type="int" >        4        4        5       42       50 </v>
   <v type="int" >        4        4       12       49       50 </v>
   <v type="int" >        8        4       41       42       50 </v>
   <v type="int" >        8        3       11       12       49 </v>
   <v type="int" >        4        3        4       41       49 </v>
   <v type="int" >        4        3       11       48       49 </v>
   <v type="int" >        8        3       40       41       49 </v>
   <v type="int" >        4        2        2       11       48 </v>
   <v type="int" >        4        2        3       40       48 </v>
   <v type="int" >        4        2        2       39       48 </v>
   <v type="int" >        8        2       39       40       48 </v>
   <v type="int" >        4        1        2       39       39 </v>
   <v type="int" >        4        1       38       39       39 </v>
   <v type="int" >        8        3       11       12       40 </v>
   <v type="int" >        8        2        3       11       40 </v>
   <v type="int" >        4        2       11       39       40 </v>
   <v type="int" >        4       11       12       40       49 </v>
   <v type="int" >        8       11       40       48       49 </v>
   <v type="int" >        8       11       39       40       48 </v>
   <v type="int" >        8       12       12       19       49 </v>
   <v type="int" >        8       11       12       12       49 </v>
   <v type="int" >        4       11       12       48       49 </v>
   <v type="int" >        4       12       19       49       56 </v>
   <v type="int" >        8       12       49       49       56 </v>
   <v type="int" >        8       12       48       49       49 </v>
   <v type="int" >        8       13       19       20       56 </v>
   <v type="int" >        8       12       13       19       56 </v>
   <v type="int" >        4       12       13       49       56 </v>
   <v type="int" >        4       13       20       56       57 </v>
   <v type="int" >        8       13       50       56       57 </v>
   <v type="int" >        8       13       49       50       56 </v>
   <v type="int" >        8       14       20       21       57 </v>
   <v type="int" >        8       13       14       20       57 </v>
   <v type="int" >        4       13       14       50       57 </v>
   <v type="int" >        4       14       21       57       58 </v>
   <v type="int" >        8       14       51       57       58 </v>
   <v type="int" >        8       14       50       51       57 </v>
   <v type="int" >        8       15       21       22       58 </v>
   <v type="int" >        8       14       15       21       58 </v>
   <v type="int" >        4       14       15       51       58 </v>
   <v type="int" >        4       15       22       58       59 </v>
   <v type="int" >        8       15       52       58       59 </v>
   <v type="int" >        8       15       51       52       58 </v>
   <v type="int" >        8       16       22       23       59 </v>
   <v type="int" >        8       15       16       22       59 </v>
   <v type="int" >        4       15       16       52       59 </v>
   <v type="int" >        4       16       23       59       60 </v>
   <v type="int" >        8       16       53       59       60 </v>
   <v type="int" >        8       16       52       53       59 </v>
   <v type="int" >        8       17       23       24       60 </v>
   <v type="int" >        8       16       17       23       60 </v>
   <v type="int" >        4       16       17       53       60 </v>
   <v type="int" >        4       17       24       60       61 </v>
   <v type="int" >        8       17       54       60       61 </v>
   <v type="int" >        8       17       53       54       60 </v>
   <v type="int" >        8       18       24       25       61 </v>
   <v type="int" >        8       17       18       24       61 </v>
   <v type="int" >        4       17       18       54       61 </v>
   <v type="int" >        4       18       25       61       62 </v>
   <v type="int" >        8       18       55       61       62 </v>
   <v type="int" >        8       18       54       55       61 </v>
   <v type="int" >        8       18       24       25       62 </v>
   <v type="int" >        4       18       18       25       62 </v>
   <v type="int" >        4       18       18       55       62 </v>
   <v type="int" >        4       18       24       61       62 </v>
   <v type="int" >        8       18       55       55       62 </v>
   <v type="int" >        8       17       23       24       61 </v>
   <v type="int" >        4       17       18       55       61 </v>
   <v type="int" >        4       17       23       60       61 </v>
   <v type="int" >        8       17       54       55       61 </v>
   <v type="int" >        8       16       22       23       60 </v>
   <v type="int" >        4       16       17       54       60 </v>
   <v type="int" >        4       16       22       59       60 </v>
   <v type="int" >        8       16       53       54       60 </v>
   <v type="int" >        8       15       21       22       59 </v>
   <v type="int" >        4       15       16       53       59 </v>
   <v type="int" >        4       15       21       58       59 </v>
   <v type="int" >        8       15       52       53       59 </v>
   <v type="int" >        8       14       20       21       58 </v>
   <v type="int" >        4       14       15       52       58 </v>
   <v type="int" >        4       14       20       57       58 </v>
   <v type="int" >        8       14       51       52       58 </v>
   <v type="int" >        8       13       19       20       57 </v>
   <v type="int" >        4       13       14       51       57 </v>
   <v type="int" >        4       13       19       56       57 </v>
   <v type="int" >        8       13       50       51       57 </v>
   <v type="int" >        4       12       12       19       56 </v>
   <v type="int" >        4       12       13       50       56 </v>
   <v type="int" >        4       12       12       49       56 </v>
   <v type="int" >        8       12       49       50       56 </v>
   <v type="int" >        4       11       12       49       49 </v>
   <v type="int" >        4        3       11       40       49 </v>
   <v type="int" >        4       11       48       49       49 </v>
   <v type="int" >        4        2       11       40       48 </v>
   <v type="int" >        8        4       12       13       41 </v>
   <v type="int" >        8        3        4       12       41 </v>
   <v type="int" >        4        3       12       40       41 </v>
   <v type="int" >        4       12       13       41       50 </v>
   <v type="int" >        8       12       41       49       50 </v>
   <v type="int" >        8       12       40       41       49 </v>
   <v type="int" >        8       13       19       20       50 </v>
   <v type="int" >        8       12       13       19       50 </v>
   <v type="int" >        4       12       19       49       50 </v>
   <v type="int" >        4       19       20       50       57 </v>
   <v type="int" >        8       19       50       56       57 </v>
   <v type="int" >        8       19       49       50       56 </v>
   <v type="int" >        8       20       20       26       57 </v>
   <v type="int" >        8       19       20       20       57 </v>
   <v type="int" >        4       19       20       56       57 </v>
   <v type="int" >        4       20       26       57       63 </v>
   <v type="int" >        8       20       57       57       63 </v>
   <v type="int" >        8       20       56       57       57 </v>
   <v type="int" >        8       21       26       27       63 </v>
   <v type="int" >        8       20       21       26       63 </v>
   <v type="int" >        4       20       21       57       63 </v>
   <v type="int" >        4       21       27       63       64 </v>
   <v type="int" >        8       21       58       63       64 </v>
   <v type="int" >        8       21       57       58       63 </v>
   <v type="int" >        8       22       27       28       64 </v>
   <v type="int" >        8       21       22       27       64 </v>
   <v type="int" >        4       21       22       58       64 </v>
   <v type="int" >        4       22       28       64       65 </v>
   <v type="int" >        8       22       59       64       65 </v>
   <v type="int" >        8       22       58       59       64 </v>
   <v type="int" >        8       23       28       29       65 </v>
   <v type="int" >        8       22       23       28       65 </v>
   <v type="int" >        4       22       23       59       65 </v>
   <v type="int" >        4       23       29       65       66 </v>
   <v type="int" >        8       23       60       65       66 </v>
   <v type="int" >        8       23       59       60       65 </v>
   <v type="int" >        8       24       29       30       66 </v>
   <v type="int" >        8       23       24       29       66 </v>
   <v type="int" >        4       23       24       60       66 </v>
   <v type="int" >        4       24       30       66       67 </v>
   <v type="int" >        8       24       61       66       67 </v>
   <v type="int" >        8       24       60       61       66 </v>
   <v type="int" >        8       25       30       30       67 </v>
   <v type="int" >        8       24       25       30       67 </v>
   <v type="int" >        4       24       25       61       67 </v>
   <v type="int" >        4       25       30       67       67 </v>
   <v type="int" >        4       25       62       67       67 </v>
   <v type="int" >        8       25       61       62       67 </v>
   <v type="int" >        8       24       29       30       67 </v>
   <v type="int" >        4       24       25       62       67 </v>
   <v type="int" >        4       24       29       66       67 </v>
   <v type="int" >        8       24       61       62       67 </v>
   <v type="int" >        8       23       28       29       66 </v>
   <v type="int" >        4       23       24       61       66 </v>
   <v type="int" >        4       23       28       65       66 </v>
   <v type="int" >        8       23       60       61       66 </v>
   <v type="int" >        8       22       27       28       65 </v>
   <v type="int" >        4       22       23       60       65 </v>
   <v type="int" >        4       22       27       64       65 </v>
   <v type="int" >        8       22       59       60       65 </v>
   <v type="int" >        8       21       26       27       64 </v>
   <v type="int" >        4       21       22       59       64 </v>
   <v type="int" >        4       21       26       63       64 </v>
   <v type="int" >        8       21       58       59       64 </v>
   <v type="int" >        4       20       20       26       63 </v>
   <v type="int" >        4       20       21       58       63 </v>
   <v type="int" >        4       20       20       57       63 </v>
   <v type="int" >        8       20       57       58       63 </v>
   <v type="int" >        4       19       20       57       57 </v>
   <v type="int" >        4       13       19       50       57 </v>
   <v type="int" >        4       19       56       57       57 </v>
   <v type="int" >        4       12       19       50       56 </v>
   <v type="int" >        4        4       12       41       50 </v>
   <v type="int" >        4        3       12       41       49 </v>
   <v type="int" >        8        5       13       14       42 </v>
   <v type="int" >        8        4        5       13       42 </v>
   <v type="int" >        4        4       13       41       42 </v>
   <v type="int" >        4       13       14       42       51 </v>
   <v type="int" >        8       13       42       50       51 </v>
   <v type="int" >        8       13       41       42       50 </v>
   <v type="int" >        8       14       20       21       51 </v>
   <v type="int" >        8       13       14       20       51 </v>
   <v type="int" >        4       13       20       50       51 </v>
   <v type="int" >        4       20       21       51       58 </v>
   <v type="int" >        8       20       51       57       58 </v>
   <v type="int" >        8       20       50       51       57 </v>
   <v type="int" >        8       21       26       27       58 </v>
   <v type="int" >        8       20       21       26       58 </v>
   <v type="int" >        4       20       26       57       58 </v>
   <v type="int" >        4       26       27       58       64 </v>
   <v type="int" >        8       26       58       63       64 </v>
   <v type="int" >        8       26       57       58       63 </v>
   <v type="int" >        8       27       27       31       64 </v>
   <v type="int" >        8       26       27       27       64 </v>
   <v type="int" >        4       26       27       63       64 </v>
   <v type="int" >        4       27       31       64       68 </v>
   <v type="int" >        8       27       64       64       68 </v>
   <v type="int" >        8       27       63       64       64 </v>
   <v type="int" >        8       28       31       32       68 </v>
   <v type="int" >        8       27       28       31       68 </v>
   <v type="int" >        4       27       28       64       68 </v>
   <v type="int" >        4       28       32       68       69 </v>
   <v type="int" >        8       28       65       68       69 </v>
   <v type="int" >        8       28       64       65       68 </v>
   <v type="int" >        8       29       32       33       69 </v>
   <v type="int" >        8       28       29       32       69 </v>
   <v type="int" >        4       28       29       65       69 </v>
   <v type="int" >        4       29       33       69       70 </v>
   <v type="int" >        8       29       66       69       70 </v>
   <v type="int" >        8       29       65       66       69 </v>
   <v type="int" >        8       30       33       34       70 </v>
   <v type="int" >        8       29       30       33       70 </v>
   <v type="int" >        4       29       30       66       70 </v>
   <v type="int" >        4       30       34       70       71 </v>
   <v type="int" >        8       30       67       70       71 </v>
   <v type="int" >        8       30       66       67       70 </v>
   <v type="int" >        8       30       33       34       71 </v>
   <v type="int" >        4       30       30       34       71 </v>
   <v type="int" >        4       30       30       67       71 </v>
   <v type="int" >        4       30       33       70       71 </v>
   <v type="int" >        8       30       67       67       71 </v>
   <v type="int" >        8       29       32       33       70 </v>
   <v type="int" >        4       29       30       67       70 </v>
   <v type="int" >        4       29       32       69       70 </v>
   <v type="int" >        8       29       66       67       70 </v>
   <v type="int" >        8       28       31       32       69 </v>
   <v type="int" >        4       28       29       66       69 </v>
   <v type="int" >        4       28       31       68       69 </v>
   <v type="int" >        8       28       65       66       69 </v>
   <v type="int" >        4       27       27       31       68 </v>
   <v type="int" >        4       27       28       65       68 </v>
   <v type="int" >        4       27       27       64       68 </v>
   <v type="int" >        8       27       64       65       68 </v>
   <v type="int" >        4       26       27       64       64 </v>
   <v type="int" >        4       21       26       58       64 </v>
   <v type="int" >        4       26       63       64       64 </v>
   <v type="int" >        4       20       26       58       63 </v>
   <v type="int" >        4       14       20       51       58 </v>
   <v type="int" >        4       13       20       51       57 </v>
   <v type="int" >        4        5       13       42       51 </v>
   <v type="int" >        4        4       13       42       50 </v>
   <v type="int" >        8        6       14       15       43 </v>
   <v type="int" >        8        5        6       14       43 </v>
   <v type="int" >        4        5       14       42       43 </v>
   <v type="int" >        4       14       15       43       52 </v>
   <v type="int" >        8       14       43       51       52 </v>
   <v type="int" >        8       14       42       43       51 </v>
   <v type="int" >        8       15       21       22       52 </v>
   <v type="int" >        8       14       15       21       52 </v>
   <v type="int" >        4       14       21       51       52 </v>
   <v type="int" >        4       21       22       52       59 </v>
   <v type="int" >        8       21       52       58       59 </v>
   <v type="int" >        8       21       51       52       58 </v>
   <v type="int" >        8       22       27       28       59 </v>
   <v type="int" >        8       21       22       27       59 </v>
   <v type="int" >        4       21       27       58       59 </v>
   <v type="int" >        4       27       28       59       65 </v>
   <v type="int" >        8       27       59       64       65 </v>
   <v type="int" >        8       27       58       59       64 </v>
   <v type="int" >        8       28       31       32       65 </v>
   <v type="int" >        8       27       28       31       65 </v>
   <v type="int" >        4       27       31       64       65 </v>
   <v type="int" >        4       31       32       65       69 </v>
   <v type="int" >        8       31       65       68       69 </v>
   <v type="int" >        8       31       64       65       68 </v>
   <v type="int" >        8       32       32       35       69 </v>
   <v type="int" >        8       31       32       32       69 </v>
   <v type="int" >        4       31       32       68       69 </v>
   <v type="int" >        4       32       35       69       72 </v>
   <v type="int" >        8       32       69       69       72 </v>
   <v type="int" >        8       32       68       69       69 </v>
   <v type="int" >        8       33       35       36       72 </v>
   <v type="int" >        8       32       33       35       72 </v>
   <v type="int" >        4       32       33       69       72 </v>
   <v type="int" >        4       33       36       72       73 </v>
   <v type="int" >        8       33       70       72       73 </v>
   <v type="int" >        8       33       69       70       72 </v>
   <v type="int" >        8       34       36       36       73 </v>
   <v type="int" >        8       33       34       36       73 </v>
   <v type="int" >        4       33       34       70       73 </v>
   <v type="int" >        4       34       36       73       73 </v>
   <v type="int" >        4       34       71       73       73 </v>
   <v type="int" >        8       34       70       71       73 </v>
   <v type="int" >        8       33       35       36       73 </v>
   <v type="int" >        4       33       34       71       73 </v>
   <v type="int" >        4       33       35       72       73 </v>
   <v type="int" >        8       33       70       71       73 </v>
   <v type="int" >        4       32       32       35       72 </v>
   <v type="int" >        4       32       33       70       72 </v>
   <v type="int" >        4       32       32       69       72 </v>
   <v type="int" >        8       32       69       70       72 </v>
   <v type="int" >        4       31       32       69       69 </v>
   <v type="int" >        4       28       31       65       69 </v>
   <v type="int" >        4       31       68       69       69 </v>
   <v type="int" >        4       27       31       65       68 </v>
   <v type="int" >        4       22       27       59       65 </v>
   <v type="int" >        4       21       27       59       64 </v>
   <v type="int" >        4       15       21       52       59 </v>
   <v type="int" >        4       14       21       52       58 </v>
   <v type="int" >        4        6       14       43       52 </v>
   <v type="int" >        4        5       14       43       51 </v>
   <v type="int" >        8        7       15       16       44 </v>
   <v type="int" >        8        6        7       15       44 </v>
   <v type="int" >        4        6       15       43       44 </v>
   <v type="int" >        4       15       16       44       53 </v>
   <v type="int" >        8       15       44       52       53 </v>
   <v type="int" >        8       15       43       44       52 </v>
   <v type="int" >        8       16       22       23       53 </v>
   <v type="int" >        8       15       16       22       53 </v>
   <v type="int" >        4       15       22       52       53 </v>
   <v type="int" >        4       22       23       53       60 </v>
   <v type="int" >        8       22       53       59       60 </v>
   <v type="int" >        8       22       52       53       59 </v>
   <v type="int" >        8       23       28       29       60 </v>
   <v type="int" >        8       22       23       28       60 </v>
   <v type="int" >        4       22       28       59       60 </v>
   <v type="int" >        4       28       29       60       66 </v>
   <v type="int" >        8       28       60       65       66 </v>
   <v type="int" >        8       28       59       60       65 </v>
   <v type="int" >        8       29       32       33       66 </v>
   <v type="int" >        8       28       29       32       66 </v>
   <v type="int" >        4       28       32       65       66 </v>
   <v type="int" >        4       32       33       66       70 </v>
   <v type="int" >        8       32       66       69       70 </v>
   <v type="int" >        8       32       65       66       69 </v>
   <v type="int" >        8       33       35       36       70 </v>
   <v type="int" >        8       32       33       35       70 </v>
   <v type="int" >        4       32       35       69       70 </v>
   <v type="int" >        4       35       36       70       73 </v>
   <v type="int" >        8       35       70       72       73 </v>
   <v type="int" >        8       35       69       70       72 </v>
   <v type="int" >       16       36       36       37       73 </v>
   <v type="int" >        8       35       36       36       73 </v>
   <v type="int" >        4       35       36       72       73 </v>
   <v type="int" >        8       36       37       73       74 </v>
   <v type="int" >       16       36       73       73       74 </v>
   <v type="int" >        8       36       72       73       73 </v>
   <v type="int" >        8       36       36       37       74 </v>
   <v type="int" >        8       36       36       73       74 </v>
   <v type="int" >        4       35       36       73       73 </v>
   <v type="int" >        4       33       35       70       73 </v>
   <v type="int" >        4       35       72       73       73 </v>
   <v type="int" >        4       32       35       70       72 </v>
   <v type="int" >        4       29       32       66       70 </v>
   <v type="int" >        4       28       32       66       69 </v>
   <v type="int" >        4       23       28       60       66 </v>
   <v type="int" >        4       22       28       60       65 </v>
   <v type="int" >        4       16       22       53       60 </v>
   <v type="int" >        4       15       22       53       59 </v>
   <v type="int" >        4        7       15       44       53 </v>
   <v type="int" >        4        6       15       44       52 </v>
   <v type="int" >        8        8       16       17       45 </v>
   <v type="int" >        8        7        8       16       45 </v>
   <v type="int" >        4        7       16       44       45 </v>
   <v type="int" >        4       16       17       45       54 </v>
   <v type="int" >        8       16       45       53       54 </v>
   <v type="int" >        8       16       44       45       53 </v>
   <v type="int" >        8       17       23       24       54 </v>
   <v type="int" >        8       16       17       23       54 </v>
   <v type="int" >        4       16       23       53       54 </v>
   <v type="int" >        4       23       24       54       61 </v>
   <v type="int" >        8       23       54       60       61 </v>
   <v type="int" >        8       23       53       54       60 </v>
   <v type="int" >        8       24       29       30       61 </v>
   <v type="int" >        8       23       24       29       61 </v>
   <v type="int" >        4       23       29       60       61 </v>
   <v type="int" >        4       29       30       61       67 </v>
   <v type="int" >        8       29       61       66       67 </v>
   <v type="int" >        8       29       60       61       66 </v>
   <v type="int" >        8       30       33       34       67 </v>
   <v type="int" >        8       29       30       33       67 </v>
   <v type="int" >        4       29       33       66       67 </v>
   <v type="int" >        4       33       34       67       71 </v>
   <v type="int" >        8       33       67       70       71 </v>
   <v type="int" >        8       33       66       67       70 </v>
   <v type="int" >        4       34       36       36       71 </v>
   <v type="int" >        8       33       34       36       71 </v>
   <v type="int" >        4       33       36       70       71 </v>
   <v type="int" >        4       36       36       71       73 </v>
   <v type="int" >        8       36       71       73       73 </v>
   <v type="int" >        8       36       70       71       73 </v>
   <v type="int" >        8       36       37       73       73 </v>
   <v type="int" >        8       37       73       73       74 </v>
   <v type="int" >        4       34       36       71       73 </v>
   <v type="int" >        4       33       36       71       73 </v>
   <v type="int" >        4       30       33       67       71 </v>
   <v type="int" >        4       29       33       67       70 </v>
   <v type="int" >        4       24       29       61       67 </v>
   <v type="int" >        4       23       29       61       66 </v>
   <v type="int" >        4       17       23       54       61 </v>
   <v type="int" >        4       16       23       54       60 </v>
   <v type="int" >        4        8       16       45       54 </v>
   <v type="int" >        4        7       16       45       53 </v>
   <v type="int" >        8        9       17       18       46 </v>
   <v type="int" >        8        8        9       17       46 </v>
   <v type="int" >        4        8       17       45       46 </v>
   <v type="int" >        4       17       18       46       55 </v>
   <v type="int" >        8       17       46       54       55 </v>
   <v type="int" >        8       17       45       46       54 </v>
   <v type="int" >        8       18       24       25       55 </v>
   <v type="int" >        8       17       18       24       55 </v>
   <v type="int" >        4       17       24       54       55 </v>
   <v type="int" >        4       24       25       55       62 </v>
   <v type="int" >        8       24       55       61       62 </v>
   <v type="int" >        8       24       54       55       61 </v>
   <v type="int" >        4       25       30       30       62 </v>
   <v type="int" >        8       24       25       30       62 </v>
   <v type="int" >        4       24       30       61       62 </v>
   <v type="int" >        4       30       30       62       67 </v>
   <v type="int" >        8       30       62       67       67 </v>
   <v type="int" >        8       30       61       62       67 </v>
   <v type="int" >        8       30       30       34       67 </v>
   <v type="int" >        4       30       34       67       67 </v>
   <v type="int" >        4       33       34       67       70 </v>
   <v type="int" >        8       34       67       70       71 </v>
   <v type="int" >        4       34       67       67       71 </v>
   <v type="int" >        8       33       34       36       70 </v>
   <v type="int" >        4       34       36       70       71 </v>
   <v type="int" >        4       35       36       70       72 </v>
   <v type="int" >        8       36       70       72       73 </v>
   <v type="int" >        4       35       36       36       72 </v>
   <v type="int" >        4       36       36       72       73 </v>
   <v type="int" >        4       33       36       70       72 </v>
   <v type="int" >        4       34       36       70       73 </v>
   <v type="int" >        4       30       34       67       70 </v>
   <v type="int" >        4       30       34       67       71 </v>
   <v type="int" >        4       25       30       62       67 </v>
   <v type="int" >        4       24       30       62       67 </v>
   <v type="int" >        4       18       24       55       62 </v>
   <v type="int" >        4       17       24       55       61 </v>
   <v type="int" >        4        9       17       46       55 </v>
   <v type="int" >        4        8       17       46       54 </v>
   <v type="int" >        4       10       18       18       47 </v>
   <v type="int" >        8        9       10       18       47 </v>
   <v type="int" >        4        9       18       46       47 </v>
   <v type="int" >        4       18       18       47       55 </v>
   <v type="int" >        8       18       47       55       55 </v>
   <v type="int" >        8       18       46       47       55 </v>
   <v type="int" >        8       18       18       25       55 </v>
   <v type="int" >        4       18       25       55       55 </v>
   <v type="int" >        4       24       25       55       61 </v>
   <v type="int" >        8       25       55       61       62 </v>
   <v type="int" >        4       25       55       55       62 </v>
   <v type="int" >        8       24       25       30       61 </v>
   <v type="int" >        4       25       30       61       62 </v>
   <v type="int" >        4       29       30       61       66 </v>
   <v type="int" >        8       30       61       66       67 </v>
   <v type="int" >        8       29       30       33       66 </v>
   <v type="int" >        4       30       33       66       67 </v>
   <v type="int" >        4       32       33       66       69 </v>
   <v type="int" >        8       33       66       69       70 </v>
   <v type="int" >        8       32       33       35       69 </v>
   <v type="int" >        4       33       35       69       70 </v>
   <v type="int" >        4       32       35       69       69 </v>
   <v type="int" >        4       35       69       69       72 </v>
   <v type="int" >        4       33       35       69       72 </v>
   <v type="int" >        4       29       33       66       69 </v>
   <v type="int" >        4       30       33       66       70 </v>
   <v type="int" >        4       24       30       61       66 </v>
   <v type="int" >        4       25       30       61       67 </v>
   <v type="int" >        4       18       25       55       61 </v>
   <v type="int" >        4       18       25       55       62 </v>
   <v type="int" >        4       10       18       47       55 </v>
   <v type="int" >        4        9       18       47       55 </v>
   <v type="int" >        8        9       10       18       46 </v>
   <v type="int" >        4       10       18       46       47 </v>
   <v type="int" >        4       17       18       46       54 </v>
   <v type="int" >        8       18       46       54       55 </v>
   <v type="int" >        8       17       18       24       54 </v>
   <v type="int" >        4       18       24       54       55 </v>
   <v type="int" >        4       23       24       54       60 </v>
   <v type="int" >        8       24       54       60       61 </v>
   <v type="int" >        8       23       24       29       60 </v>
   <v type="int" >        4       24       29       60       61 </v>
   <v type="int" >        4       28       29       60       65 </v>
   <v type="int" >        8       29       60       65       66 </v>
   <v type="int" >        8       28       29       32       65 </v>
   <v type="int" >        4       29       32       65       66 </v>
   <v type="int" >        4       31       32       65       68 </v>
   <v type="int" >        8       32       65       68       69 </v>
   <v type="int" >        4       31       32       32       68 </v>
   <v type="int" >        4       32       32       68       69 </v>
   <v type="int" >        4       28       32       65       68 </v>
   <v type="int" >        4       29       32       65       69 </v>
   <v type="int" >        4       23       29       60       65 </v>
   <v type="int" >        4       24       29       60       66 </v>
   <v type="int" >        4       17       24       54       60 </v>
   <v type="int" >        4       18       24       54       61 </v>
   <v type="int" >        4        9       18       46       54 </v>
   <v type="int" >        4       10       18       46       55 </v>
   <v type="int" >        8        8        9       17       45 </v>
   <v type="int" >        4        9       17       45       46 </v>
   <v type="int" >        4       16       17       45       53 </v>
   <v type="int" >        8       17       45       53       54 </v>
   <v type="int" >        8       16       17       23       53 </v>
   <v type="int" >        4       17       23       53       54 </v>
   <v type="int" >        4       22       23       53       59 </v>
   <v type="int" >        8       23       53       59       60 </v>
   <v type="int" >        8       22       23       28       59 </v>
   <v type="int" >        4       23       28       59       60 </v>
   <v type="int" >        4       27       28       59       64 </v>
   <v type="int" >        8       28       59       64       65 </v>
   <v type="int" >        8       27       28       31       64 </v>
   <v type="int" >        4       28       31       64       65 </v>
   <v type="int" >        4       27       31       64       64 </v>
   <v type="int" >        4       31       64       64       68 </v>
   <v type="int" >        4       28       31       64       68 </v>
   <v type="int" >        4       22       28       59       64 </v>
   <v type="int" >        4       23       28       59       65 </v>
   <v type="int" >        4       16       23       53       59 </v>
   <v type="int" >        4       17       23       53       60 </v>
   <v type="int" >        4        8       17       45       53 </v>
   <v type="int" >        4        9       17       45       54 </v>
   <v type="int" >        8        7        8       16       44 </v>
   <v type="int" >        4        8       16       44       45 </v>
   <v type="int" >        4       15       16       44       52 </v>
   <v type="int" >        8       16       44       52       53 </v>
   <v type="int" >        8       15       16       22       52 </v>
   <v type="int" >        4       16       22       52       53 </v>
   <v type="int" >        4       21       22       52       58 </v>
   <v type="int" >        8       22       52       58       59 </v>
   <v type="int" >        8       21       22       27       58 </v>
   <v type="int" >        4       22       27       58       59 </v>
   <v type="int" >        4       26       27       58       63 </v>
   <v type="int" >        8       27       58       63       64 </v>
   <v type="int" >        4       26       27       27       63 </v>
   <v type="int" >        4       27       27       63       64 </v>
   <v type="int" >        4       21       27       58       63 </v>
   <v type="int" >        4       22       27       58       64 </v>
   <v type="int" >        4       15       22       52       58 </v>
   <v type="int" >        4       16       22       52       59 </v>
   <v type="int" >        4        7       16       44       52 </v>
   <v type="int" >        4        8       16       44       53 </v>
   <v type="int" >        8        6        7       15       43 </v>
   <v type="int" >        4        7       15       43       44 </v>
   <v type="int" >        4       14       15       43       51 </v>
   <v type="int" >        8       15       43       51       52 </v>
   <v type="int" >        8       14       15       21       51 </v>
   <v type="int" >        4       15       21       51       52 </v>
   <v type="int" >        4       20       21       51       57 </v>
   <v type="int" >        8       21       51       57       58 </v>
   <v type="int" >        8       20       21       26       57 </v>
   <v type="int" >        4       21       26       57       58 </v>
   <v type="int" >        4       20       26       57       57 </v>
   <v type="int" >        4       26       57       57       63 </v>
   <v type="int" >        4       21       26       57       63 </v>
   <v type="int" >        4       14       21       51       57 </v>
   <v type="int" >        4       15       21       51       58 </v>
   <v type="int" >        4        6       15       43       51 </v>
   <v type="int" >        4        7       15       43       52 </v>
   <v type="int" >        8        5        6       14       42 </v>
   <v type="int" >        4        6       14       42       43 </v>
   <v type="int" >        4       13       14       42       50 </v>
   <v type="int" >        8       14       42       50       51 </v>
   <v type="int" >        8       13       14       20       50 </v>
   <v type="int" >        4       14       20       50       51 </v>
   <v type="int" >        4       19       20       50       56 </v>
   <v type="int" >        8       20       50       56       57 </v>
   <v type="int" >        4       19       20       20       56 </v>
   <v type="int" >        4       20       20       56       57 </v>
   <v type="int" >        4       13       20       50       56 </v>
   <v type="int" >        4       14       20       50       57 </v>
   <v type="int" >        4        5       14       42       50 </v>
   <v type="int" >        4        6       14       42       51 </v>
   <v type="int" >        8        4        5       13       41 </v>
   <v type="int" >        4        5       13       41       42 </v>
   <v type="int" >        4       12       13       41       49 </v>
   <v type="int" >        8       13       41       49       50 </v>
   <v type="int" >        8       12       13       19       49 </v>
   <v type="int" >        4       13       19       49       50 </v>
   <v type="int" >        4       12       19       49       49 </v>
   <v type="int" >        4       19       49       49       56 </v>
   <v type="int" >        4       13       19       49       56 </v>
   <v type="int" >        4        4       13       41       49 </v>
   <v type="int" >        4        5       13       41       50 </v>
   <v type="int" >        8        3        4       12       40 </v>
   <v type="int" >        4        4       12       40       41 </v>
   <v type="int" >        4       11       12       40       48 </v>
   <v type="int" >        8       12       40       48       49 </v>
   <v type="int" >        4       11       12       12       48 </v>
   <v type="int" >        4       12       12       48       49 </v>
   <v type="int" >        4        3       12       40       48 </v>
   <v type="int" >        4        4       12       40       49 </v>
   <v type="int" >        8        2        3       11       39 </v>
   <v type="int" >        4        3       11       39       40 </v>
   <v type="int" >        4        2       11       39       39 </v>
   <v type="int" >        4       11       39       39       48 </v>
   <v type="int" >        4        3       11       39       48 </v>
   <v type="int" >        4        1        2        2       38 </v>
   <v type="int" >        4        2        2       38       39 </v>
   <v type="int" >        8       39       39       48       76 </v>
   <v type="int" >        8       38       39       39       76 </v>
   <v type="int" >        4       38       39       75       76 </v>
   <v type="int" >        4       39       48       76       85 </v>
   <v type="int" >        8       39       76       76       85 </v>
   <v type="int" >        8       39       75       76       76 </v>
   <v type="int" >        8       40       48       49       85 </v>
   <v type="int" >        8       39       40       48       85 </v>
   <v type="int" >        4       39       40       76       85 </v>
   <v type="int" >        4       40       49       85       86 </v>
   <v type="int" >        8       40       77       85       86 </v>
   <v type="int" >        8       40       76       77       85 </v>
   <v type="int" >        8       41       49       50       86 </v>
   <v type="int" >        8       40       41       49       86 </v>
   <v type="int" >        4       40       41       77       86 </v>
   <v type="int" >        4       41       50       86       87 </v>
   <v type="int" >        8       41       78       86       87 </v>
   <v type="int" >        8       41       77       78       86 </v>
   <v type="int" >        8       42       50       51       87 </v>
   <v type="int" >        8       41       42       50       87 </v>
   <v type="int" >        4       41       42       78       87 </v>
   <v type="int" >        4       42       51       87       88 </v>
   <v type="int" >        8       42       79       87       88 </v>
   <v type="int" >        8       42       78       79       87 </v>
   <v type="int" >        8       43       51       52       88 </v>
   <v type="int" >        8       42       43       51       88 </v>
   <v type="int" >        4       42       43       79       88 </v>
   <v type="int" >        4       43       52       88       89 </v>
   <v type="int" >        8       43       80       88       89 </v>
   <v type="int" >        8       43       79       80       88 </v>
   <v type="int" >        8       44       52       53       89 </v>
   <v type="int" >        8       43       44       52       89 </v>
   <v type="int" >        4       43       44       80       89 </v>
   <v type="int" >        4       44       53       89       90 </v>
   <v type="int" >        8       44       81       89       90 </v>
   <v type="int" >        8       44       80       81       89 </v>
   <v type="int" >        8       45       53       54       90 </v>
   <v type="int" >        8       44       45       53       90 </v>
   <v type="int" >        4       44       45       81       90 </v>
   <v type="int" >        4       45       54       90       91 </v>
   <v type="int" >        8       45       82       90       91 </v>
   <v type="int" >        8       45       81       82       90 </v>
   <v type="int" >        8       46       54       55       91 </v>
   <v type="int" >        8       45       46       54       91 </v>
   <v type="int" >        4       45       46       82       91 </v>
   <v type="int" >        4       46       55       91       92 </v>
   <v type="int" >        8       46       83       91       92 </v>
   <v type="int" >        8       46       82       83       91 </v>
   <v type="int" >        8       47       55       55       92 </v>
   <v type="int" >        8       46       47       55       92 </v>
   <v type="int" >        4       46       47       83       92 </v>
   <v type="int" >        4       47       55       92       92 </v>
   <v type="int" >        4       47       84       92       92 </v>
   <v type="int" >        8       47       83       84       92 </v>
   <v type="int" >        8       46       54       55       92 </v>
   <v type="int" >        4       46       47       84       92 </v>
   <v type="int" >        4       46       54       91       92 </v>
   <v type="int" >        8       46       83       84       92 </v>
   <v type="int" >        8       45       53       54       91 </v>
   <v type="int" >        4       45       46       83       91 </v>
   <v type="int" >        4       45       53       90       91 </v>
   <v type="int" >        8       45       82       83       91 </v>
   <v type="int" >        8       44       52       53       90 </v>
   <v type="int" >        4       44       45       82       90 </v>
   <v type="int" >        4       44       52       89       90 </v>
   <v type="int" >        8       44       81       82       90 </v>
   <v type="int" >        8       43       51       52       89 </v>
   <v type="int" >        4       43       44       81       89 </v>
   <v type="int" >        4       43       51       88       89 </v>
   <v type="int" >        8       43       80       81       89 </v>
   <v type="int" >        8       42       50       51       88 </v>
   <v type="int" >        4       42       43       80       88 </v>
   <v type="int" >        4       42       50       87       88 </v>
   <v type="int" >        8       42       79       80       88 </v>
   <v type="int" >        8       41       49       50       87 </v>
   <v type="int" >        4       41       42       79       87 </v>
   <v type="int" >        4       41       49       86       87 </v>
   <v type="int" >        8       41       78       79       87 </v>
   <v type="int" >        8       40       48       49       86 </v>
   <v type="int" >        4       40       41       78       86 </v>
   <v type="int" >        4       40       48       85       86 </v>
   <v type="int" >        8       40       77       78       86 </v>
   <v type="int" >        4       39       39       48       85 </v>
   <v type="int" >        4       39       40       77       85 </v>
   <v type="int" >        4       39       39       76       85 </v>
   <v type="int" >        8       39       76       77       85 </v>
   <v type="int" >        4       38       39       76       76 </v>
   <v type="int" >        4       38       75       76       76 </v>
   <v type="int" >        8       40       48       49       77 </v>
   <v type="int" >        8       39       40       48       77 </v>
   <v type="int" >        4       39       48       76       77 </v>
   <v type="int" >        4       48       49       77       86 </v>
   <v type="int" >        8       48       77       85       86 </v>
   <v type="int" >        8       48       76       77       85 </v>
   <v type="int" >        8       49       49       56       86 </v>
   <v type="int" >        8       48       49       49       86 </v>
   <v type="int" >        4       48       49       85       86 </v>
   <v type="int" >        4       49       56       86       93 </v>
   <v type="int" >        8       49       86       86       93 </v>
   <v type="int" >        8       49       85       86       86 </v>
   <v type="int" >        8       50       56       57       93 </v>
   <v type="int" >        8       49       50       56       93 </v>
   <v type="int" >        4       49       50       86       93 </v>
   <v type="int" >        4       50       57       93       94 </v>
   <v type="int" >        8       50       87       93       94 </v>
   <v type="int" >        8       50       86       87       93 </v>
   <v type="int" >        8       51       57       58       94 </v>
   <v type="int" >        8       50       51       57       94 </v>
   <v type="int" >        4       50       51       87       94 </v>
   <v type="int" >        4       51       58       94       95 </v>
   <v type="int" >        8       51       88       94       95 </v>
   <v type="int" >        8       51       87       88       94 </v>
   <v type="int" >        8       52       58       59       95 </v>
   <v type="int" >        8       51       52       58       95 </v>
   <v type="int" >        4       51       52       88       95 </v>
   <v type="int" >        4       52       59       95       96 </v>
   <v type="int" >        8       52       89       95       96 </v>
   <v type="int" >        8       52       88       89       95 </v>
   <v type="int" >        8       53       59       60       96 </v>
   <v type="int" >        8       52       53       59       96 </v>
   <v type="int" >        4       52       53       89       96 </v>
   <v type="int" >        4       53       60       96       97 </v>
   <v type="int" >        8       53       90       96       97 </v>
   <v type="int" >        8       53       89       90       96 </v>
   <v type="int" >        8       54       60       61       97 </v>
   <v type="int" >        8       53       54       60       97 </v>
   <v type="int" >        4       53       54       90       97 </v>
   <v type="int" >        4       54       61       97       98 </v>
   <v type="int" >        8       54       91       97       98 </v>
   <v type="int" >        8       54       90       91       97 </v>
   <v type="int" >        8       55       61       62       98 </v>
   <v type="int" >        8       54       55       61       98 </v>
   <v type="int" >        4       54       55       91       98 </v>
   <v type="int" >        4       55       62       98       99 </v>
   <v type="int" >        8       55       92       98       99 </v>
   <v type="int" >        8       55       91       92       98 </v>
   <v type="int" >        8       55       61       62       99 </v>
   <v type="int" >        4       55       55       62       99 </v>
   <v type="int" >        4       55       55       92       99 </v>
   <v type="int" >        4       55       61       98       99 </v>
   <v type="int" >        8       55       92       92       99 </v>
   <v type="int" >        8       54       60       61       98 </v>
   <v type="int" >        4       54       55       92       98 </v>
   <v type="int" >        4       54       60       97       98 </v>
   <v type="int" >        8       54       91       92       98 </v>
   <v type="int" >        8       53       59       60       97 </v>
   <v type="int" >        4       53       54       91       97 </v>
   <v type="int" >        4       53       59       96       97 </v>
   <v type="int" >        8       53       90       91       97 </v>
   <v type="int" >        8       52       58       59       96 </v>
   <v type="int" >        4       52       53       90       96 </v>
   <v type="int" >        4       52       58       95       96 </v>
   <v type="int" >        8       52       89       90       96 </v>
   <v type="int" >        8       51       57       58       95 </v>
   <v type="int" >        4       51       52       89       95 </v>
   <v type="int" >        4       51       57       94       95 </v>
   <v type="int" >        8       51       88       89       95 </v>
   <v type="int" >        8       50       56       57       94 </v>
   <v type="int" >        4       50       51       88       94 </v>
   <v type="int" >        4       50       56       93       94 </v>
   <v type="int" >        8       50       87       88       94 </v>
[...]
       <r>     5.8585     1.1963    37.8975 </r>
       <r>     5.8907     1.1883    37.9359 </r>
       <r>     5.9228     1.1475    37.9738 </r>
       <r>     5.9550     1.0986    38.0097 </r>
       <r>     5.9872     1.0851    38.0448 </r>
       <r>     6.0194     1.0767    38.0795 </r>
       <r>     6.0515     1.0706    38.1141 </r>
       <r>     6.0837     1.0643    38.1484 </r>
       <r>     6.1159     1.0573    38.1825 </r>
       <r>     6.1481     1.0511    38.2165 </r>
       <r>     6.1802     1.0460    38.2502 </r>
       <r>     6.2124     1.0437    38.2838 </r>
       <r>     6.2446     1.0425    38.3174 </r>
       <r>     6.2767     1.0429    38.3509 </r>
       <r>     6.3089     1.0444    38.3845 </r>
       <r>     6.3411     1.0392    38.4180 </r>
       <r>     6.3733     1.0323    38.4513 </r>
       <r>     6.4054     1.0297    38.4845 </r>
       <r>     6.4376     1.0292    38.5176 </r>
       <r>     6.4698     1.0301    38.5508 </r>
       <r>     6.5020     1.0266    38.5838 </r>
       <r>     6.5341     1.0279    38.6169 </r>
       <r>     6.5663     1.0321    38.6500 </r>
       <r>     6.5985     1.0361    38.6833 </r>
       <r>     6.6306     1.0364    38.7166 </r>
       <r>     6.6628     1.0356    38.7499 </r>
       <r>     6.6950     1.0356    38.7832 </r>
       <r>     6.7272     1.0386    38.8166 </r>
       <r>     6.7593     1.0455    38.8501 </r>
       <r>     6.7915     1.0530    38.8839 </r>
       <r>     6.8237     1.0540    38.9178 </r>
       <r>     6.8558     1.0605    38.9518 </r>
       <r>     6.8880     1.0737    38.9861 </r>
       <r>     6.9202     1.0908    39.0209 </r>
       <r>     6.9524     1.1028    39.0562 </r>
       <r>     6.9845     1.1092    39.0918 </r>
       <r>     7.0167     1.1155    39.1276 </r>
       <r>     7.0489     1.1188    39.1636 </r>
       <r>     7.0811     1.1183    39.1996 </r>
       <r>     7.1132     1.1095    39.2354 </r>
       <r>     7.1454     1.0985    39.2709 </r>
       <r>     7.1776     1.0983    39.3062 </r>
       <r>     7.2097     1.1005    39.3416 </r>
       <r>     7.2419     1.1022    39.3770 </r>
       <r>     7.2741     1.1031    39.4125 </r>
       <r>     7.3063     1.1101    39.4480 </r>
       <r>     7.3384     1.1301    39.4840 </r>
       <r>     7.3706     1.1418    39.5206 </r>
       <r>     7.4028     1.1588    39.5576 </r>
       <r>     7.4349     1.1810    39.5952 </r>
       <r>     7.4671     1.1989    39.6335 </r>
       <r>     7.4993     1.2297    39.6725 </r>
       <r>     7.5315     1.2750    39.7127 </r>
       <r>     7.5636     1.3354    39.7547 </r>
       <r>     7.5958     1.5025    39.7994 </r>
       <r>     7.6280     1.8082    39.8522 </r>
       <r>     7.6602     2.1388    39.9159 </r>
       <r>     7.6923     1.2458    39.9839 </r>
       <r>     7.7245     0.6387    40.0115 </r>
       <r>     7.7567     0.5267    40.0292 </r>
       <r>     7.7888     0.5026    40.0458 </r>
       <r>     7.8210     0.4858    40.0616 </r>
       <r>     7.8532     0.4842    40.0772 </r>
       <r>     7.8854     0.4882    40.0928 </r>
       <r>     7.9175     0.4952    40.1086 </r>
       <r>     7.9497     0.5055    40.1247 </r>
       <r>     7.9819     0.5183    40.1412 </r>
       <r>     8.0140     0.5804    40.1585 </r>
       <r>     8.0462     0.7305    40.1794 </r>
       <r>     8.0784     0.7601    40.2047 </r>
       <r>     8.1106     0.7582    40.2288 </r>
       <r>     8.1427     0.7649    40.2533 </r>
       <r>     8.1749     0.7942    40.2783 </r>
       <r>     8.2071     0.8376    40.3045 </r>
       <r>     8.2393     0.8851    40.3322 </r>
       <r>     8.2714     1.1280    40.3635 </r>
       <r>     8.3036     1.5091    40.4067 </r>
       <r>     8.3358     1.7285    40.4594 </r>
       <r>     8.3679     1.8001    40.5162 </r>
       <r>     8.4001     1.8644    40.5752 </r>
       <r>     8.4323     1.7022    40.6344 </r>
       <r>     8.4645     1.6028    40.6867 </r>
       <r>     8.4966     1.6213    40.7385 </r>
       <r>     8.5288     1.6547    40.7911 </r>
       <r>     8.5610     1.7219    40.8456 </r>
       <r>     8.5931     1.7488    40.9013 </r>
       <r>     8.6253     1.7990    40.9584 </r>
       <r>     8.6575     1.8588    41.0172 </r>
       <r>     8.6897     1.9175    41.0780 </r>
       <r>     8.7218     1.9655    41.1404 </r>
       <r>     8.7540     2.0350    41.2046 </r>
       <r>     8.7862     2.0636    41.2704 </r>
       <r>     8.8184     2.1347    41.3378 </r>
       <r>     8.8505     2.2681    41.4085 </r>
       <r>     8.8827     2.4112    41.4838 </r>
       <r>     8.9149     2.7449    41.5650 </r>
       <r>     8.9470     5.7715    41.7188 </r>
       <r>     8.9792     6.9869    41.9231 </r>
       <r>     9.0114     5.2193    42.1091 </r>
       <r>     9.0436     4.3759    42.2638 </r>
       <r>     9.0757     3.8203    42.3953 </r>
       <r>     9.1079     3.1283    42.5082 </r>
       <r>     9.1401     2.5923    42.5991 </r>
       <r>     9.1722     2.2604    42.6777 </r>
       <r>     9.2044     1.8682    42.7426 </r>
       <r>     9.2366     1.6172    42.7987 </r>
       <r>     9.2688     1.4519    42.8476 </r>
       <r>     9.3009     1.3867    42.8932 </r>
       <r>     9.3331     1.3302    42.9369 </r>
       <r>     9.3653     1.2782    42.9788 </r>
       <r>     9.3975     1.2285    43.0191 </r>
       <r>     9.4296     1.1657    43.0578 </r>
       <r>     9.4618     1.0931    43.0938 </r>
       <r>     9.4940     1.0370    43.1281 </r>
       <r>     9.5261     1.0000    43.1608 </r>
       <r>     9.5583     0.9788    43.1926 </r>
       <r>     9.5905     0.9588    43.2238 </r>
       <r>     9.6227     0.9387    43.2543 </r>
       <r>     9.6548     0.9181    43.2842 </r>
       <r>     9.6870     0.9017    43.3135 </r>
       <r>     9.7192     0.8870    43.3423 </r>
       <r>     9.7513     0.8658    43.3705 </r>
       <r>     9.7835     0.8470    43.3980 </r>
       <r>     9.8157     0.8281    43.4250 </r>
       <r>     9.8479     0.8074    43.4513 </r>
       <r>     9.8800     0.7894    43.4769 </r>
       <r>     9.9122     0.7772    43.5021 </r>
       <r>     9.9444     0.7700    43.5270 </r>
       <r>     9.9766     0.7662    43.5517 </r>
       <r>    10.0087     0.7637    43.5763 </r>
       <r>    10.0409     0.7621    43.6008 </r>
       <r>    10.0731     0.7624    43.6254 </r>
       <r>    10.1052     0.7630    43.6499 </r>
       <r>    10.1374     0.7634    43.6745 </r>
       <r>    10.1696     0.7639    43.6990 </r>
       <r>    10.2018     0.7647    43.7236 </r>
       <r>    10.2339     0.7662    43.7482 </r>
       <r>    10.2661     0.7688    43.7729 </r>
       <r>    10.2983     0.7763    43.7978 </r>
       <r>    10.3304     0.7816    43.8229 </r>
       <r>    10.3626     0.7888    43.8481 </r>
       <r>    10.3948     0.7971    43.8736 </r>
       <r>    10.4270     0.8068    43.8994 </r>
       <r>    10.4591     0.8237    43.9257 </r>
       <r>    10.4913     0.8385    43.9524 </r>
       <r>    10.5235     0.8524    43.9796 </r>
       <r>    10.5557     0.8663    44.0072 </r>
       <r>    10.5878     0.8838    44.0354 </r>
       <r>    10.6200     0.9017    44.0641 </r>
       <r>    10.6522     0.9231    44.0935 </r>
       <r>    10.6843     0.9504    44.1236 </r>
       <r>    10.7165     0.9839    44.1547 </r>
       <r>    10.7487     1.0237    44.1870 </r>
       <r>    10.7809     1.0686    44.2206 </r>
       <r>    10.8130     1.1194    44.2558 </r>
       <r>    10.8452     1.1753    44.2927 </r>
       <r>    10.8774     1.2480    44.3316 </r>
       <r>    10.9095     1.5198    44.3760 </r>
       <r>    10.9417     1.6909    44.4277 </r>
       <r>    10.9739     1.8311    44.4844 </r>
       <r>    11.0061     2.0407    44.5470 </r>
       <r>    11.0382     1.9969    44.6140 </r>
       <r>    11.0704     1.8703    44.6761 </r>
       <r>    11.1026     1.7692    44.7344 </r>
       <r>    11.1348     1.7158    44.7904 </r>
       <r>    11.1669     1.6505    44.8447 </r>
       <r>    11.1991     1.5963    44.8968 </r>
       <r>    11.2313     1.5756    44.9477 </r>
       <r>    11.2634     1.5648    44.9982 </r>
       <r>    11.2956     1.5562    45.0484 </r>
       <r>    11.3278     1.5527    45.0984 </r>
       <r>    11.3600     1.5591    45.1485 </r>
       <r>    11.3921     1.5677    45.1987 </r>
       <r>    11.4243     1.6103    45.2497 </r>
       <r>    11.4565     1.6353    45.3036 </r>
       <r>    11.4886     1.5892    45.3552 </r>
       <r>    11.5208     1.5553    45.4059 </r>
       <r>    11.5530     1.4950    45.4550 </r>
       <r>    11.5852     1.4623    45.5024 </r>
       <r>    11.6173     1.4543    45.5493 </r>
       <r>    11.6495     1.4489    45.5960 </r>
       <r>    11.6817     1.4456    45.6426 </r>
       <r>    11.7139     1.4437    45.6891 </r>
       <r>    11.7460     1.4416    45.7355 </r>
       <r>    11.7782     1.4235    45.7816 </r>
       <r>    11.8104     1.4044    45.8271 </r>
       <r>    11.8425     1.3925    45.8720 </r>
       <r>    11.8747     1.3874    45.9168 </r>
       <r>    11.9069     1.3842    45.9613 </r>
       <r>    11.9391     1.3806    46.0058 </r>
       <r>    11.9712     1.3764    46.0502 </r>
       <r>    12.0034     1.3723    46.0944 </r>
       <r>    12.0356     1.3718    46.1385 </r>
       <r>    12.0677     1.3720    46.1827 </r>
       <r>    12.0999     1.3656    46.2267 </r>
       <r>    12.1321     1.3595    46.2705 </r>
       <r>    12.1643     1.3533    46.3142 </r>
       <r>    12.1964     1.3427    46.3576 </r>
       <r>    12.2286     1.3606    46.4011 </r>
       <r>    12.2608     1.3609    46.4448 </r>
       <r>    12.2930     1.3655    46.4887 </r>
       <r>    12.3251     1.3735    46.5327 </r>
       <r>    12.3573     1.3826    46.5770 </r>
       <r>    12.3895     1.3882    46.6216 </r>
       <r>    12.4216     1.3926    46.6663 </r>
       <r>    12.4538     1.4028    46.7113 </r>
       <r>    12.4860     1.4232    46.7567 </r>
       <r>    12.5182     1.4462    46.8029 </r>
       <r>    12.5503     1.4686    46.8498 </r>
       <r>    12.5825     1.4913    46.8974 </r>
       <r>    12.6147     1.5089    46.9456 </r>
       <r>    12.6468     1.5278    46.9945 </r>
       <r>    12.6790     1.5480    47.0440 </r>
       <r>    12.7112     1.5565    47.0940 </r>
       <r>    12.7434     1.5750    47.1442 </r>
       <r>    12.7755     1.6406    47.1958 </r>
       <r>    12.8077     1.7746    47.2507 </r>
       <r>    12.8399     1.8893    47.3098 </r>
       <r>    12.8721     1.9476    47.3716 </r>
       <r>    12.9042     1.9674    47.4348 </r>
       <r>    12.9364     1.9508    47.4978 </r>
       <r>    12.9686     1.9233    47.5606 </r>
       <r>    13.0007     1.7212    47.6193 </r>
       <r>    13.0329     1.4488    47.6712 </r>
       <r>    13.0651     1.3520    47.7158 </r>
       <r>    13.0973     1.3053    47.7586 </r>
       <r>    13.1294     1.2910    47.8003 </r>
       <r>    13.1616     1.2789    47.8416 </r>
       <r>    13.1938     1.2556    47.8826 </r>
       <r>    13.2259     1.2487    47.9228 </r>
       <r>    13.2581     1.2509    47.9630 </r>
       <r>    13.2903     1.2558    48.0033 </r>
       <r>    13.3225     1.2765    48.0438 </r>
       <r>    13.3546     1.2919    48.0853 </r>
       <r>    13.3868     1.3148    48.1272 </r>
       <r>    13.4190     1.3229    48.1696 </r>
       <r>    13.4512     1.3312    48.2123 </r>
       <r>    13.4833     1.3321    48.2551 </r>
       <r>    13.5155     1.3527    48.2982 </r>
       <r>    13.5477     1.4521    48.3432 </r>
       <r>    13.5798     1.5004    48.3908 </r>
       <r>    13.6120     1.6912    48.4417 </r>
       <r>    13.6442     1.9534    48.5020 </r>
       <r>    13.6764     1.7136    48.5630 </r>
       <r>    13.7085     1.5732    48.6157 </r>
       <r>    13.7407     1.5055    48.6650 </r>
       <r>    13.7729     1.4898    48.7129 </r>
       <r>    13.8050     1.7340    48.7638 </r>
       <r>    13.8372     2.2986    48.8286 </r>
       <r>    13.8694     2.4660    48.9055 </r>
       <r>    13.9016     2.6794    48.9889 </r>
       <r>    13.9337     2.4271    49.0700 </r>
       <r>    13.9659     2.2609    49.1457 </r>
       <r>    13.9981     2.1004    49.2153 </r>
       <r>    14.0303     2.0220    49.2816 </r>
       <r>    14.0624     2.0025    49.3457 </r>
       <r>    14.0946     1.9990    49.4112 </r>
       <r>    14.1268     1.7159    49.4714 </r>
       <r>    14.1589     1.4107    49.5216 </r>
       <r>    14.1911     1.2420    49.5635 </r>
       <r>    14.2233     1.1415    49.6019 </r>
       <r>    14.2555     1.0462    49.6370 </r>
       <r>    14.2876     0.9707    49.6695 </r>
       <r>    14.3198     0.9095    49.6997 </r>
       <r>    14.3520     0.8488    49.7280 </r>
       <r>    14.3841     0.7730    49.7541 </r>
       <r>    14.4163     0.7153    49.7780 </r>
       <r>    14.4485     0.6357    49.7996 </r>
       <r>    14.4807     0.5365    49.8185 </r>
       <r>    14.5128     0.4625    49.8345 </r>
       <r>    14.5450     0.4178    49.8485 </r>
       <r>    14.5772     0.3859    49.8615 </r>
       <r>    14.6094     0.3563    49.8734 </r>
       <r>    14.6415     0.3296    49.8844 </r>
       <r>    14.6737     0.3053    49.8946 </r>
       <r>    14.7059     0.2825    49.9041 </r>
       <r>    14.7380     0.2578    49.9128 </r>
       <r>    14.7702     0.2367    49.9207 </r>
       <r>    14.8024     0.2204    49.9281 </r>
       <r>    14.8346     0.2063    49.9349 </r>
       <r>    14.8667     0.1882    49.9413 </r>
       <r>    14.8989     0.1569    49.9468 </r>
       <r>    14.9311     0.1333    49.9515 </r>
       <r>    14.9632     0.1129    49.9554 </r>
       <r>    14.9954     0.1004    49.9588 </r>
       <r>    15.0276     0.0931    49.9619 </r>
       <r>    15.0598     0.0873    49.9648 </r>
       <r>    15.0919     0.0823    49.9676 </r>
       <r>    15.1241     0.0776    49.9701 </r>
       <r>    15.1563     0.0730    49.9726 </r>
       <r>    15.1885     0.0686    49.9748 </r>
       <r>    15.2206     0.0643    49.9770 </r>
       <r>    15.2528     0.0601    49.9790 </r>
       <r>    15.2850     0.0562    49.9808 </r>
       <r>    15.3171     0.0524    49.9826 </r>
       <r>    15.3493     0.0487    49.9842 </r>
       <r>    15.3815     0.0452    49.9857 </r>
       <r>    15.4137     0.0419    49.9871 </r>
       <r>    15.4458     0.0388    49.9884 </r>
       <r>    15.4780     0.0359    49.9896 </r>
       <r>    15.5102     0.0334    49.9907 </r>
       <r>    15.5423     0.0310    49.9918 </r>
       <r>    15.5745     0.0288    49.9927 </r>
       <r>    15.6067     0.0266    49.9936 </r>
       <r>    15.6389     0.0245    49.9944 </r>
       <r>    15.6710     0.0224    49.9952 </r>
       <r>    15.7032     0.0205    49.9959 </r>
       <r>    15.7354     0.0185    49.9965 </r>
       <r>    15.7676     0.0167    49.9971 </r>
       <r>    15.7997     0.0149    49.9976 </r>
       <r>    15.8319     0.0131    49.9980 </r>
       <r>    15.8641     0.0115    49.9984 </r>
       <r>    15.8962     0.0099    49.9988 </r>
       <r>    15.9284     0.0083    49.9991 </r>
       <r>    15.9606     0.0068    49.9993 </r>
       <r>    15.9928     0.0054    49.9995 </r>
       <r>    16.0249     0.0042    49.9997 </r>
       <r>    16.0571     0.0031    49.9998 </r>
       <r>    16.0893     0.0022    49.9999 </r>
       <r>    16.1214     0.0015    49.9999 </r>
       <r>    16.1536     0.0009    50.0000 </r>
       <r>    16.1858     0.0004    50.0000 </r>
       <r>    16.2180     0.0001    50.0000 </r>
       <r>    16.2501     0.0000    50.0000 </r>
       <r>    16.2823     0.0000    50.0000 </r>
       <r>    16.3145     0.0000    50.0000 </r>
       <r>    16.3467     0.0000    50.0000 </r>
       <r>    16.3788     0.0000    50.0000 </r>
       <r>    16.4110     0.0000    50.0000 </r>
       <r>    16.4432     0.0000    50.0000 </r>
       <r>    16.4753     0.0000    50.0000 </r>
       <r>    16.5075     0.0000    50.0000 </r>
       <r>    16.5397     0.0000    50.0000 </r>
       <r>    16.5719     0.0000    50.0000 </r>
       <r>    16.6040     0.0000    50.0000 </r>
       <r>    16.6362     0.0000    50.0000 </r>
       <r>    16.6684     0.0000    50.0000 </r>
       <r>    16.7005     0.0000    50.0000 </r>
       <r>    16.7327     0.0000    50.0000 </r>
       <r>    16.7649     0.0000    50.0000 </r>
       <r>    16.7971     0.0000    50.0000 </r>
       <r>    16.8292     0.0000    50.0000 </r>
       <r>    16.8614     0.0000    50.0000 </r>
       <r>    16.8936     0.0000    50.0000 </r>
       <r>    16.9258     0.0000    50.0000 </r>
       <r>    16.9579     0.0000    50.0000 </r>
       <r>    16.9901     0.0000    50.0000 </r>
       <r>    17.0223     0.0000    50.0000 </r>
       <r>    17.0544     0.0000    50.0000 </r>
       <r>    17.0866     0.0000    50.0000 </r>
       <r>    17.1188     0.0000    50.0000 </r>
       <r>    17.1510     0.0000    50.0000 </r>
       <r>    17.1831     0.0000    50.0000 </r>
       <r>    17.2153     0.0000    50.0000 </r>
       <r>    17.2475     0.0000    50.0000 </r>
       <r>    17.2796     0.0000    50.0000 </r>
       <r>    17.3118     0.0000    50.0000 </r>
       <r>    17.3440     0.0000    50.0000 </r>
       <r>    17.3762     0.0000    50.0000 </r>
       <r>    17.4083     0.0000    50.0000 </r>
       <r>    17.4405     0.0000    50.0000 </r>
       <r>    17.4727     0.0000    50.0000 </r>
       <r>    17.5049     0.0000    50.0000 </r>
       <r>    17.5370     0.0000    50.0000 </r>
       <r>    17.5692     0.0000    50.0000 </r>
       <r>    17.6014     0.0000    50.0000 </r>
       <r>    17.6335     0.0000    50.0000 </r>
       <r>    17.6657     0.0000    50.0000 </r>
       <r>    17.6979     0.0000    50.0000 </r>
       <r>    17.7301     0.0000    50.0000 </r>
       <r>    17.7622     0.0000    50.0000 </r>
       <r>    17.7944     0.0000    50.0000 </r>
       <r>    17.8266     0.0000    50.0000 </r>
       <r>    17.8587     0.0000    50.0000 </r>
       <r>    17.8909     0.0000    50.0000 </r>
       <r>    17.9231     0.0000    50.0000 </r>
       <r>    17.9553     0.0000    50.0000 </r>
       <r>    17.9874     0.0000    50.0000 </r>
       <r>    18.0196     0.0000    50.0000 </r>
       <r>    18.0518     0.0000    50.0000 </r>
       <r>    18.0840     0.0000    50.0000 </r>
       <r>    18.1161     0.0000    50.0000 </r>
       <r>    18.1483     0.0000    50.0000 </r>
       <r>    18.1805     0.0000    50.0000 </r>
       <r>    18.2126     0.0000    50.0000 </r>
       <r>    18.2448     0.0000    50.0000 </r>
       <r>    18.2770     0.0000    50.0000 </r>
       <r>    18.3092     0.0000    50.0000 </r>
      </set>
     </set>
    </array>
   </total>
  </dos>
 </calculation>
 <structure name="finalpos" >
  <crystal>
   <varray name="basis" >
    <v>       3.23735094       0.00000000       0.00000000 </v>
    <v>      -1.61867547       2.80362816       0.00000000 </v>
    <v>       0.00000000       0.00000000       5.22206116 </v>
   </varray>
   <i name="volume">     47.39714119 </i>
   <varray name="rec_basis" >
    <v>       0.30889453       0.17834034       0.00000000 </v>
    <v>       0.00000000       0.35668068       0.00000000 </v>
    <v>       0.00000000       0.00000000       0.19149527 </v>
   </varray>
  </crystal>
  <varray name="positions" >
   <v>       0.66666669       0.33333334       0.50059169 </v>
   <v>       0.33333334       0.66666669       0.00059170 </v>
   <v>       0.66666669       0.33333334       0.87971830 </v>
   <v>       0.33333334       0.66666669       0.37971830 </v>
  </varray>
 </structure>
</modeling>
