Mg1O1                                   
           1
     3.237351    0.000000    0.000000
    -1.618675    2.803628    0.000000
     0.000000    0.000000    5.222061
   Zn   O 
   2   2
Direct configuration=     1
   0.66666669  0.33333334  0.50059169
   0.33333334  0.66666669  0.00059170
   0.66666669  0.33333334  0.87971830
   0.33333334  0.66666669  0.37971830
