   2   2   0   0
  0.9345265E+01  0.2978829E-09  0.2978829E-09  0.2978829E-09  0.2500000E-15
  1.000000000000000E-004
  CAR 
 Mg1O1                                   
     33.29308985    -19.71956692 1401      1.56359479      1.00000000
    -19.720  0.0000E+00  0.0000E+00
    -19.682  0.0000E+00  0.0000E+00
    -19.644  0.0000E+00  0.0000E+00
    -19.606  0.0000E+00  0.0000E+00
    -19.568  0.0000E+00  0.0000E+00
    -19.530  0.0000E+00  0.0000E+00
    -19.492  0.0000E+00  0.0000E+00
    -19.455  0.0000E+00  0.0000E+00
    -19.417  0.0000E+00  0.0000E+00
    -19.379  0.0000E+00  0.0000E+00
    -19.341  0.0000E+00  0.0000E+00
    -19.303  0.0000E+00  0.0000E+00
    -19.265  0.0000E+00  0.0000E+00
    -19.227  0.0000E+00  0.0000E+00
    -19.189  0.0000E+00  0.0000E+00
    -19.152  0.0000E+00  0.0000E+00
    -19.114  0.0000E+00  0.0000E+00
    -19.076  0.0000E+00  0.0000E+00
    -19.038  0.0000E+00  0.0000E+00
    -19.000  0.0000E+00  0.0000E+00
    -18.962  0.0000E+00  0.0000E+00
    -18.924  0.0000E+00  0.0000E+00
    -18.887  0.0000E+00  0.0000E+00
    -18.849  0.0000E+00  0.0000E+00
    -18.811  0.0000E+00  0.0000E+00
    -18.773  0.0000E+00  0.0000E+00
    -18.735  0.0000E+00  0.0000E+00
    -18.697  0.0000E+00  0.0000E+00
    -18.659  0.0000E+00  0.0000E+00
    -18.621  0.0000E+00  0.0000E+00
    -18.584  0.0000E+00  0.0000E+00
    -18.546  0.0000E+00  0.0000E+00
    -18.508  0.0000E+00  0.0000E+00
    -18.470  0.0000E+00  0.0000E+00
    -18.432  0.0000E+00  0.0000E+00
    -18.394  0.0000E+00  0.0000E+00
    -18.356  0.0000E+00  0.0000E+00
    -18.319  0.0000E+00  0.0000E+00
    -18.281  0.0000E+00  0.0000E+00
    -18.243  0.0000E+00  0.0000E+00
    -18.205  0.0000E+00  0.0000E+00
    -18.167  0.0000E+00  0.0000E+00
    -18.129  0.0000E+00  0.0000E+00
    -18.091  0.0000E+00  0.0000E+00
    -18.053  0.0000E+00  0.0000E+00
    -18.016  0.0000E+00  0.0000E+00
    -17.978  0.0000E+00  0.0000E+00
    -17.940  0.0000E+00  0.0000E+00
    -17.902  0.0000E+00  0.0000E+00
    -17.864  0.0000E+00  0.0000E+00
    -17.826  0.0000E+00  0.0000E+00
    -17.788  0.0000E+00  0.0000E+00
    -17.751  0.0000E+00  0.0000E+00
    -17.713  0.0000E+00  0.0000E+00
    -17.675  0.0000E+00  0.0000E+00
    -17.637  0.0000E+00  0.0000E+00
    -17.599  0.0000E+00  0.0000E+00
    -17.561  0.0000E+00  0.0000E+00
    -17.523  0.0000E+00  0.0000E+00
    -17.485  0.0000E+00  0.0000E+00
    -17.448  0.0000E+00  0.0000E+00
    -17.410  0.0000E+00  0.0000E+00
    -17.372  0.0000E+00  0.0000E+00
    -17.334  0.0000E+00  0.0000E+00
    -17.296  0.8201E-02  0.3764E-04
    -17.258  0.1037E+00  0.1975E-02
    -17.220  0.1158E+00  0.5815E-02
    -17.183  0.1538E+00  0.1091E-01
    -17.145  0.1836E+00  0.1738E-01
    -17.107  0.2017E+00  0.2461E-01
    -17.069  0.2276E+00  0.3274E-01
    -17.031  0.2545E+00  0.4186E-01
    -16.993  0.2780E+00  0.5198E-01
    -16.955  0.3006E+00  0.6294E-01
    -16.917  0.3235E+00  0.7475E-01
    -16.880  0.3479E+00  0.8745E-01
    -16.842  0.3736E+00  0.1011E+00
    -16.804  0.3997E+00  0.1158E+00
    -16.766  0.4261E+00  0.1314E+00
    -16.728  0.4538E+00  0.1480E+00
    -16.690  0.4824E+00  0.1658E+00
    -16.652  0.5118E+00  0.1846E+00
    -16.615  0.5421E+00  0.2045E+00
    -16.577  0.5750E+00  0.2257E+00
    -16.539  0.6140E+00  0.2482E+00
    -16.501  0.6552E+00  0.2722E+00
    -16.463  0.6972E+00  0.2978E+00
    -16.425  0.7409E+00  0.3250E+00
    -16.387  0.7864E+00  0.3539E+00
    -16.349  0.8348E+00  0.3846E+00
    -16.312  0.9047E+00  0.4175E+00
    -16.274  0.9790E+00  0.4532E+00
    -16.236  0.1059E+01  0.4917E+00
    -16.198  0.1145E+01  0.5334E+00
    -16.160  0.1237E+01  0.5785E+00
    -16.122  0.1352E+01  0.6273E+00
    -16.084  0.1526E+01  0.6817E+00
    -16.047  0.1732E+01  0.7433E+00
    -16.009  0.2016E+01  0.8139E+00
    -15.971  0.2559E+01  0.8985E+00
    -15.933  0.2957E+01  0.1000E+01
    -15.895  0.2954E+01  0.1111E+01
    -15.857  0.2997E+01  0.1223E+01
    -15.819  0.3141E+01  0.1339E+01
    -15.781  0.3412E+01  0.1464E+01
    -15.744  0.3673E+01  0.1597E+01
    -15.706  0.4546E+01  0.1750E+01
    -15.668  0.3732E+01  0.1946E+01
    -15.630  0.0000E+00  0.2000E+01
    -15.592  0.0000E+00  0.2000E+01
    -15.554  0.0000E+00  0.2000E+01
    -15.516  0.0000E+00  0.2000E+01
    -15.479  0.0000E+00  0.2000E+01
    -15.441  0.0000E+00  0.2000E+01
    -15.403  0.0000E+00  0.2000E+01
    -15.365  0.0000E+00  0.2000E+01
    -15.327  0.0000E+00  0.2000E+01
    -15.289  0.0000E+00  0.2000E+01
    -15.251  0.0000E+00  0.2000E+01
    -15.213  0.0000E+00  0.2000E+01
    -15.176  0.0000E+00  0.2000E+01
    -15.138  0.0000E+00  0.2000E+01
    -15.100  0.0000E+00  0.2000E+01
    -15.062  0.0000E+00  0.2000E+01
    -15.024  0.0000E+00  0.2000E+01
    -14.986  0.0000E+00  0.2000E+01
    -14.948  0.0000E+00  0.2000E+01
    -14.911  0.0000E+00  0.2000E+01
    -14.873  0.0000E+00  0.2000E+01
    -14.835  0.0000E+00  0.2000E+01
    -14.797  0.0000E+00  0.2000E+01
    -14.759  0.0000E+00  0.2000E+01
    -14.721  0.0000E+00  0.2000E+01
    -14.683  0.0000E+00  0.2000E+01
    -14.645  0.0000E+00  0.2000E+01
    -14.608  0.0000E+00  0.2000E+01
    -14.570  0.0000E+00  0.2000E+01
    -14.532  0.0000E+00  0.2000E+01
    -14.494  0.0000E+00  0.2000E+01
    -14.456  0.0000E+00  0.2000E+01
    -14.418  0.0000E+00  0.2000E+01
    -14.380  0.0000E+00  0.2000E+01
    -14.343  0.0000E+00  0.2000E+01
    -14.305  0.0000E+00  0.2000E+01
    -14.267  0.0000E+00  0.2000E+01
    -14.229  0.0000E+00  0.2000E+01
    -14.191  0.0000E+00  0.2000E+01
    -14.153  0.0000E+00  0.2000E+01
    -14.115  0.0000E+00  0.2000E+01
    -14.078  0.0000E+00  0.2000E+01
    -14.040  0.0000E+00  0.2000E+01
    -14.002  0.0000E+00  0.2000E+01
    -13.964  0.0000E+00  0.2000E+01
    -13.926  0.0000E+00  0.2000E+01
    -13.888  0.0000E+00  0.2000E+01
    -13.850  0.0000E+00  0.2000E+01
    -13.812  0.0000E+00  0.2000E+01
    -13.775  0.0000E+00  0.2000E+01
    -13.737  0.0000E+00  0.2000E+01
    -13.699  0.0000E+00  0.2000E+01
    -13.661  0.0000E+00  0.2000E+01
    -13.623  0.0000E+00  0.2000E+01
    -13.585  0.0000E+00  0.2000E+01
    -13.547  0.0000E+00  0.2000E+01
    -13.510  0.0000E+00  0.2000E+01
    -13.472  0.0000E+00  0.2000E+01
    -13.434  0.0000E+00  0.2000E+01
    -13.396  0.0000E+00  0.2000E+01
    -13.358  0.0000E+00  0.2000E+01
    -13.320  0.0000E+00  0.2000E+01
    -13.282  0.0000E+00  0.2000E+01
    -13.244  0.0000E+00  0.2000E+01
    -13.207  0.0000E+00  0.2000E+01
    -13.169  0.0000E+00  0.2000E+01
    -13.131  0.0000E+00  0.2000E+01
    -13.093  0.0000E+00  0.2000E+01
    -13.055  0.0000E+00  0.2000E+01
    -13.017  0.0000E+00  0.2000E+01
    -12.979  0.0000E+00  0.2000E+01
    -12.942  0.0000E+00  0.2000E+01
    -12.904  0.0000E+00  0.2000E+01
    -12.866  0.0000E+00  0.2000E+01
    -12.828  0.0000E+00  0.2000E+01
    -12.790  0.0000E+00  0.2000E+01
    -12.752  0.0000E+00  0.2000E+01
    -12.714  0.0000E+00  0.2000E+01
    -12.676  0.0000E+00  0.2000E+01
    -12.639  0.0000E+00  0.2000E+01
    -12.601  0.0000E+00  0.2000E+01
    -12.563  0.0000E+00  0.2000E+01
    -12.525  0.0000E+00  0.2000E+01
    -12.487  0.0000E+00  0.2000E+01
    -12.449  0.0000E+00  0.2000E+01
    -12.411  0.0000E+00  0.2000E+01
    -12.374  0.0000E+00  0.2000E+01
    -12.336  0.0000E+00  0.2000E+01
    -12.298  0.0000E+00  0.2000E+01
    -12.260  0.0000E+00  0.2000E+01
    -12.222  0.0000E+00  0.2000E+01
    -12.184  0.0000E+00  0.2000E+01
    -12.146  0.0000E+00  0.2000E+01
    -12.108  0.0000E+00  0.2000E+01
    -12.071  0.0000E+00  0.2000E+01
    -12.033  0.0000E+00  0.2000E+01
    -11.995  0.0000E+00  0.2000E+01
    -11.957  0.0000E+00  0.2000E+01
    -11.919  0.0000E+00  0.2000E+01
    -11.881  0.0000E+00  0.2000E+01
    -11.843  0.0000E+00  0.2000E+01
    -11.806  0.0000E+00  0.2000E+01
    -11.768  0.0000E+00  0.2000E+01
    -11.730  0.0000E+00  0.2000E+01
    -11.692  0.0000E+00  0.2000E+01
    -11.654  0.0000E+00  0.2000E+01
    -11.616  0.0000E+00  0.2000E+01
    -11.578  0.0000E+00  0.2000E+01
    -11.540  0.0000E+00  0.2000E+01
    -11.503  0.0000E+00  0.2000E+01
    -11.465  0.0000E+00  0.2000E+01
    -11.427  0.0000E+00  0.2000E+01
    -11.389  0.0000E+00  0.2000E+01
    -11.351  0.0000E+00  0.2000E+01
    -11.313  0.0000E+00  0.2000E+01
    -11.275  0.0000E+00  0.2000E+01
    -11.238  0.0000E+00  0.2000E+01
    -11.200  0.0000E+00  0.2000E+01
    -11.162  0.0000E+00  0.2000E+01
    -11.124  0.0000E+00  0.2000E+01
    -11.086  0.0000E+00  0.2000E+01
    -11.048  0.0000E+00  0.2000E+01
    -11.010  0.0000E+00  0.2000E+01
    -10.972  0.0000E+00  0.2000E+01
    -10.935  0.0000E+00  0.2000E+01
    -10.897  0.0000E+00  0.2000E+01
    -10.859  0.0000E+00  0.2000E+01
    -10.821  0.0000E+00  0.2000E+01
    -10.783  0.0000E+00  0.2000E+01
    -10.745  0.0000E+00  0.2000E+01
    -10.707  0.0000E+00  0.2000E+01
    -10.670  0.0000E+00  0.2000E+01
    -10.632  0.0000E+00  0.2000E+01
    -10.594  0.0000E+00  0.2000E+01
    -10.556  0.0000E+00  0.2000E+01
    -10.518  0.0000E+00  0.2000E+01
    -10.480  0.0000E+00  0.2000E+01
    -10.442  0.0000E+00  0.2000E+01
    -10.404  0.0000E+00  0.2000E+01
    -10.367  0.0000E+00  0.2000E+01
    -10.329  0.0000E+00  0.2000E+01
    -10.291  0.0000E+00  0.2000E+01
    -10.253  0.0000E+00  0.2000E+01
    -10.215  0.0000E+00  0.2000E+01
    -10.177  0.0000E+00  0.2000E+01
    -10.139  0.0000E+00  0.2000E+01
    -10.102  0.0000E+00  0.2000E+01
    -10.064  0.0000E+00  0.2000E+01
    -10.026  0.0000E+00  0.2000E+01
     -9.988  0.0000E+00  0.2000E+01
     -9.950  0.0000E+00  0.2000E+01
     -9.912  0.0000E+00  0.2000E+01
     -9.874  0.0000E+00  0.2000E+01
     -9.836  0.0000E+00  0.2000E+01
     -9.799  0.0000E+00  0.2000E+01
     -9.761  0.0000E+00  0.2000E+01
     -9.723  0.0000E+00  0.2000E+01
     -9.685  0.0000E+00  0.2000E+01
     -9.647  0.0000E+00  0.2000E+01
     -9.609  0.0000E+00  0.2000E+01
     -9.571  0.0000E+00  0.2000E+01
     -9.534  0.0000E+00  0.2000E+01
     -9.496  0.0000E+00  0.2000E+01
     -9.458  0.0000E+00  0.2000E+01
     -9.420  0.0000E+00  0.2000E+01
     -9.382  0.0000E+00  0.2000E+01
     -9.344  0.0000E+00  0.2000E+01
     -9.306  0.0000E+00  0.2000E+01
     -9.269  0.0000E+00  0.2000E+01
     -9.231  0.0000E+00  0.2000E+01
     -9.193  0.0000E+00  0.2000E+01
     -9.155  0.0000E+00  0.2000E+01
     -9.117  0.0000E+00  0.2000E+01
     -9.079  0.0000E+00  0.2000E+01
     -9.041  0.0000E+00  0.2000E+01
     -9.003  0.0000E+00  0.2000E+01
     -8.966  0.0000E+00  0.2000E+01
     -8.928  0.0000E+00  0.2000E+01
     -8.890  0.0000E+00  0.2000E+01
     -8.852  0.0000E+00  0.2000E+01
     -8.814  0.0000E+00  0.2000E+01
     -8.776  0.0000E+00  0.2000E+01
     -8.738  0.0000E+00  0.2000E+01
     -8.701  0.0000E+00  0.2000E+01
     -8.663  0.0000E+00  0.2000E+01
     -8.625  0.0000E+00  0.2000E+01
     -8.587  0.0000E+00  0.2000E+01
     -8.549  0.0000E+00  0.2000E+01
     -8.511  0.0000E+00  0.2000E+01
     -8.473  0.0000E+00  0.2000E+01
     -8.435  0.0000E+00  0.2000E+01
     -8.398  0.0000E+00  0.2000E+01
     -8.360  0.0000E+00  0.2000E+01
     -8.322  0.0000E+00  0.2000E+01
     -8.284  0.0000E+00  0.2000E+01
     -8.246  0.0000E+00  0.2000E+01
     -8.208  0.0000E+00  0.2000E+01
     -8.170  0.0000E+00  0.2000E+01
     -8.133  0.0000E+00  0.2000E+01
     -8.095  0.0000E+00  0.2000E+01
     -8.057  0.0000E+00  0.2000E+01
     -8.019  0.0000E+00  0.2000E+01
     -7.981  0.0000E+00  0.2000E+01
     -7.943  0.0000E+00  0.2000E+01
     -7.905  0.0000E+00  0.2000E+01
     -7.867  0.0000E+00  0.2000E+01
     -7.830  0.0000E+00  0.2000E+01
     -7.792  0.0000E+00  0.2000E+01
     -7.754  0.0000E+00  0.2000E+01
     -7.716  0.0000E+00  0.2000E+01
     -7.678  0.0000E+00  0.2000E+01
     -7.640  0.0000E+00  0.2000E+01
     -7.602  0.0000E+00  0.2000E+01
     -7.565  0.0000E+00  0.2000E+01
     -7.527  0.0000E+00  0.2000E+01
     -7.489  0.0000E+00  0.2000E+01
     -7.451  0.0000E+00  0.2000E+01
     -7.413  0.0000E+00  0.2000E+01
     -7.375  0.0000E+00  0.2000E+01
     -7.337  0.0000E+00  0.2000E+01
     -7.299  0.0000E+00  0.2000E+01
     -7.262  0.0000E+00  0.2000E+01
     -7.224  0.0000E+00  0.2000E+01
     -7.186  0.0000E+00  0.2000E+01
     -7.148  0.0000E+00  0.2000E+01
     -7.110  0.0000E+00  0.2000E+01
     -7.072  0.0000E+00  0.2000E+01
     -7.034  0.0000E+00  0.2000E+01
     -6.997  0.0000E+00  0.2000E+01
     -6.959  0.0000E+00  0.2000E+01
     -6.921  0.0000E+00  0.2000E+01
     -6.883  0.0000E+00  0.2000E+01
     -6.845  0.0000E+00  0.2000E+01
     -6.807  0.0000E+00  0.2000E+01
     -6.769  0.0000E+00  0.2000E+01
     -6.731  0.0000E+00  0.2000E+01
     -6.694  0.0000E+00  0.2000E+01
     -6.656  0.0000E+00  0.2000E+01
     -6.618  0.0000E+00  0.2000E+01
     -6.580  0.0000E+00  0.2000E+01
     -6.542  0.0000E+00  0.2000E+01
     -6.504  0.0000E+00  0.2000E+01
     -6.466  0.0000E+00  0.2000E+01
     -6.429  0.0000E+00  0.2000E+01
     -6.391  0.0000E+00  0.2000E+01
     -6.353  0.0000E+00  0.2000E+01
     -6.315  0.0000E+00  0.2000E+01
     -6.277  0.0000E+00  0.2000E+01
     -6.239  0.0000E+00  0.2000E+01
     -6.201  0.0000E+00  0.2000E+01
     -6.163  0.0000E+00  0.2000E+01
     -6.126  0.0000E+00  0.2000E+01
     -6.088  0.0000E+00  0.2000E+01
     -6.050  0.0000E+00  0.2000E+01
     -6.012  0.0000E+00  0.2000E+01
     -5.974  0.0000E+00  0.2000E+01
     -5.936  0.0000E+00  0.2000E+01
     -5.898  0.0000E+00  0.2000E+01
     -5.861  0.0000E+00  0.2000E+01
     -5.823  0.0000E+00  0.2000E+01
     -5.785  0.0000E+00  0.2000E+01
     -5.747  0.0000E+00  0.2000E+01
     -5.709  0.0000E+00  0.2000E+01
     -5.671  0.0000E+00  0.2000E+01
     -5.633  0.0000E+00  0.2000E+01
     -5.595  0.0000E+00  0.2000E+01
     -5.558  0.0000E+00  0.2000E+01
     -5.520  0.0000E+00  0.2000E+01
     -5.482  0.0000E+00  0.2000E+01
     -5.444  0.0000E+00  0.2000E+01
     -5.406  0.0000E+00  0.2000E+01
     -5.368  0.0000E+00  0.2000E+01
     -5.330  0.0000E+00  0.2000E+01
     -5.293  0.0000E+00  0.2000E+01
     -5.255  0.0000E+00  0.2000E+01
     -5.217  0.0000E+00  0.2000E+01
     -5.179  0.0000E+00  0.2000E+01
     -5.141  0.0000E+00  0.2000E+01
     -5.103  0.0000E+00  0.2000E+01
     -5.065  0.0000E+00  0.2000E+01
     -5.027  0.0000E+00  0.2000E+01
     -4.990  0.0000E+00  0.2000E+01
     -4.952  0.0000E+00  0.2000E+01
     -4.914  0.0000E+00  0.2000E+01
     -4.876  0.0000E+00  0.2000E+01
     -4.838  0.0000E+00  0.2000E+01
     -4.800  0.0000E+00  0.2000E+01
     -4.762  0.0000E+00  0.2000E+01
     -4.725  0.0000E+00  0.2000E+01
     -4.687  0.0000E+00  0.2000E+01
     -4.649  0.0000E+00  0.2000E+01
     -4.611  0.0000E+00  0.2000E+01
     -4.573  0.0000E+00  0.2000E+01
     -4.535  0.0000E+00  0.2000E+01
     -4.497  0.0000E+00  0.2000E+01
     -4.459  0.0000E+00  0.2000E+01
     -4.422  0.0000E+00  0.2000E+01
     -4.384  0.0000E+00  0.2000E+01
     -4.346  0.0000E+00  0.2000E+01
     -4.308  0.0000E+00  0.2000E+01
     -4.270  0.0000E+00  0.2000E+01
     -4.232  0.0000E+00  0.2000E+01
     -4.194  0.0000E+00  0.2000E+01
     -4.157  0.0000E+00  0.2000E+01
     -4.119  0.0000E+00  0.2000E+01
     -4.081  0.0000E+00  0.2000E+01
     -4.043  0.0000E+00  0.2000E+01
     -4.005  0.0000E+00  0.2000E+01
     -3.967  0.0000E+00  0.2000E+01
     -3.929  0.0000E+00  0.2000E+01
     -3.892  0.0000E+00  0.2000E+01
     -3.854  0.0000E+00  0.2000E+01
     -3.816  0.0000E+00  0.2000E+01
     -3.778  0.0000E+00  0.2000E+01
     -3.740  0.0000E+00  0.2000E+01
     -3.702  0.0000E+00  0.2000E+01
     -3.664  0.0000E+00  0.2000E+01
     -3.626  0.0000E+00  0.2000E+01
     -3.589  0.0000E+00  0.2000E+01
     -3.551  0.0000E+00  0.2000E+01
     -3.513  0.0000E+00  0.2000E+01
     -3.475  0.0000E+00  0.2000E+01
     -3.437  0.0000E+00  0.2000E+01
     -3.399  0.0000E+00  0.2000E+01
     -3.361  0.1677E+00  0.2002E+01
     -3.324  0.1462E+00  0.2007E+01
     -3.286  0.1947E+00  0.2013E+01
     -3.248  0.2479E+00  0.2022E+01
     -3.210  0.2974E+00  0.2032E+01
     -3.172  0.3177E+00  0.2044E+01
     -3.134  0.3431E+00  0.2056E+01
     -3.096  0.3720E+00  0.2070E+01
     -3.058  0.4036E+00  0.2085E+01
     -3.021  0.4377E+00  0.2101E+01
     -2.983  0.4730E+00  0.2118E+01
     -2.945  0.5073E+00  0.2136E+01
     -2.907  0.5401E+00  0.2156E+01
     -2.869  0.5732E+00  0.2177E+01
     -2.831  0.7221E+00  0.2201E+01
     -2.793  0.8281E+00  0.2231E+01
     -2.756  0.9371E+00  0.2264E+01
     -2.718  0.1039E+01  0.2301E+01
     -2.680  0.1150E+01  0.2343E+01
     -2.642  0.1246E+01  0.2388E+01
     -2.604  0.1382E+01  0.2438E+01
     -2.566  0.1581E+01  0.2494E+01
     -2.528  0.1869E+01  0.2559E+01
     -2.490  0.2356E+01  0.2638E+01
     -2.453  0.2280E+01  0.2727E+01
     -2.415  0.2393E+01  0.2816E+01
     -2.377  0.2391E+01  0.2907E+01
     -2.339  0.2291E+01  0.2995E+01
     -2.301  0.2323E+01  0.3083E+01
     -2.263  0.2330E+01  0.3169E+01
     -2.225  0.1791E+01  0.3246E+01
     -2.188  0.1498E+01  0.3308E+01
     -2.150  0.1363E+01  0.3361E+01
     -2.112  0.1264E+01  0.3411E+01
     -2.074  0.1113E+01  0.3456E+01
     -2.036  0.9517E+00  0.3495E+01
     -1.998  0.8142E+00  0.3529E+01
     -1.960  0.7007E+00  0.3557E+01
     -1.922  0.6093E+00  0.3582E+01
     -1.885  0.5327E+00  0.3603E+01
     -1.847  0.4484E+00  0.3622E+01
     -1.809  0.3941E+00  0.3638E+01
     -1.771  0.3372E+00  0.3653E+01
     -1.733  0.3292E+00  0.3665E+01
     -1.695  0.3260E+00  0.3678E+01
     -1.657  0.3275E+00  0.3690E+01
     -1.620  0.3338E+00  0.3702E+01
     -1.582  0.3750E+00  0.3716E+01
     -1.544  0.5195E+00  0.3733E+01
     -1.506  0.6755E+00  0.3756E+01
     -1.468  0.7214E+00  0.3783E+01
     -1.430  0.7514E+00  0.3811E+01
     -1.392  0.7647E+00  0.3840E+01
     -1.354  0.7524E+00  0.3868E+01
     -1.317  0.7488E+00  0.3897E+01
     -1.279  0.7532E+00  0.3925E+01
     -1.241  0.7657E+00  0.3954E+01
     -1.203  0.7827E+00  0.3983E+01
     -1.165  0.8016E+00  0.4013E+01
     -1.127  0.8170E+00  0.4044E+01
     -1.089  0.8310E+00  0.4075E+01
     -1.052  0.8432E+00  0.4107E+01
     -1.014  0.8508E+00  0.4139E+01
     -0.976  0.8609E+00  0.4171E+01
     -0.938  0.8763E+00  0.4204E+01
     -0.900  0.8843E+00  0.4238E+01
     -0.862  0.8883E+00  0.4271E+01
     -0.824  0.8925E+00  0.4305E+01
     -0.786  0.8970E+00  0.4339E+01
     -0.749  0.9009E+00  0.4373E+01
     -0.711  0.9112E+00  0.4407E+01
     -0.673  0.9147E+00  0.4442E+01
     -0.635  0.9196E+00  0.4476E+01
     -0.597  0.9259E+00  0.4511E+01
     -0.559  0.9377E+00  0.4547E+01
     -0.521  0.9488E+00  0.4582E+01
     -0.484  0.9496E+00  0.4618E+01
     -0.446  0.9691E+00  0.4655E+01
     -0.408  0.9756E+00  0.4691E+01
     -0.370  0.9683E+00  0.4728E+01
     -0.332  0.9687E+00  0.4765E+01
     -0.294  0.1710E+01  0.4804E+01
     -0.256  0.1155E+01  0.4848E+01
     -0.218  0.1228E+01  0.4893E+01
     -0.181  0.1321E+01  0.4942E+01
     -0.143  0.1386E+01  0.4994E+01
     -0.105  0.1535E+01  0.5048E+01
     -0.067  0.1624E+01  0.5108E+01
     -0.029  0.1763E+01  0.5172E+01
      0.009  0.1880E+01  0.5241E+01
      0.047  0.2143E+01  0.5317E+01
      0.084  0.2374E+01  0.5405E+01
      0.122  0.2348E+01  0.5495E+01
      0.160  0.2354E+01  0.5585E+01
      0.198  0.2380E+01  0.5674E+01
      0.236  0.2428E+01  0.5765E+01
      0.274  0.2461E+01  0.5858E+01
      0.312  0.2474E+01  0.5951E+01
      0.350  0.2467E+01  0.6045E+01
      0.387  0.2449E+01  0.6138E+01
      0.425  0.2518E+01  0.6232E+01
      0.463  0.2547E+01  0.6328E+01
      0.501  0.2548E+01  0.6424E+01
      0.539  0.2541E+01  0.6520E+01
      0.577  0.2583E+01  0.6617E+01
      0.615  0.2647E+01  0.6716E+01
      0.652  0.2695E+01  0.6817E+01
      0.690  0.2704E+01  0.6920E+01
      0.728  0.2750E+01  0.7023E+01
      0.766  0.2732E+01  0.7127E+01
      0.804  0.2702E+01  0.7231E+01
      0.842  0.2200E+01  0.7322E+01
      0.880  0.1909E+01  0.7399E+01
      0.918  0.1772E+01  0.7469E+01
      0.955  0.1593E+01  0.7533E+01
      0.993  0.1449E+01  0.7590E+01
      1.031  0.1329E+01  0.7643E+01
      1.069  0.1206E+01  0.7691E+01
      1.107  0.1102E+01  0.7734E+01
      1.145  0.1019E+01  0.7775E+01
      1.183  0.9383E+00  0.7811E+01
      1.220  0.8732E+00  0.7846E+01
      1.258  0.7822E+00  0.7877E+01
      1.296  0.6873E+00  0.7905E+01
      1.334  0.5941E+00  0.7929E+01
      1.372  0.5493E+00  0.7951E+01
      1.410  0.4640E+00  0.7970E+01
      1.448  0.3080E+00  0.7985E+01
      1.485  0.2479E+00  0.7995E+01
      1.523  0.1240E-01  0.8000E+01
      1.561  0.0000E+00  0.8000E+01
      1.599  0.0000E+00  0.8000E+01
      1.637  0.0000E+00  0.8000E+01
      1.675  0.0000E+00  0.8000E+01
      1.713  0.0000E+00  0.8000E+01
      1.751  0.0000E+00  0.8000E+01
      1.788  0.0000E+00  0.8000E+01
      1.826  0.0000E+00  0.8000E+01
      1.864  0.0000E+00  0.8000E+01
      1.902  0.0000E+00  0.8000E+01
      1.940  0.0000E+00  0.8000E+01
      1.978  0.0000E+00  0.8000E+01
      2.016  0.0000E+00  0.8000E+01
      2.053  0.0000E+00  0.8000E+01
      2.091  0.0000E+00  0.8000E+01
      2.129  0.0000E+00  0.8000E+01
      2.167  0.0000E+00  0.8000E+01
      2.205  0.0000E+00  0.8000E+01
      2.243  0.0000E+00  0.8000E+01
      2.281  0.0000E+00  0.8000E+01
      2.319  0.0000E+00  0.8000E+01
      2.356  0.0000E+00  0.8000E+01
      2.394  0.0000E+00  0.8000E+01
      2.432  0.0000E+00  0.8000E+01
      2.470  0.0000E+00  0.8000E+01
      2.508  0.0000E+00  0.8000E+01
      2.546  0.0000E+00  0.8000E+01
      2.584  0.0000E+00  0.8000E+01
      2.621  0.0000E+00  0.8000E+01
      2.659  0.0000E+00  0.8000E+01
      2.697  0.0000E+00  0.8000E+01
      2.735  0.0000E+00  0.8000E+01
      2.773  0.0000E+00  0.8000E+01
      2.811  0.0000E+00  0.8000E+01
      2.849  0.0000E+00  0.8000E+01
      2.887  0.0000E+00  0.8000E+01
      2.924  0.0000E+00  0.8000E+01
      2.962  0.0000E+00  0.8000E+01
      3.000  0.0000E+00  0.8000E+01
      3.038  0.0000E+00  0.8000E+01
      3.076  0.0000E+00  0.8000E+01
      3.114  0.0000E+00  0.8000E+01
      3.152  0.0000E+00  0.8000E+01
      3.189  0.0000E+00  0.8000E+01
      3.227  0.0000E+00  0.8000E+01
      3.265  0.0000E+00  0.8000E+01
      3.303  0.0000E+00  0.8000E+01
      3.341  0.0000E+00  0.8000E+01
      3.379  0.0000E+00  0.8000E+01
      3.417  0.0000E+00  0.8000E+01
      3.455  0.0000E+00  0.8000E+01
      3.492  0.0000E+00  0.8000E+01
      3.530  0.0000E+00  0.8000E+01
      3.568  0.0000E+00  0.8000E+01
      3.606  0.0000E+00  0.8000E+01
      3.644  0.0000E+00  0.8000E+01
      3.682  0.0000E+00  0.8000E+01
      3.720  0.0000E+00  0.8000E+01
      3.757  0.0000E+00  0.8000E+01
      3.795  0.0000E+00  0.8000E+01
      3.833  0.0000E+00  0.8000E+01
      3.871  0.0000E+00  0.8000E+01
      3.909  0.0000E+00  0.8000E+01
      3.947  0.0000E+00  0.8000E+01
      3.985  0.0000E+00  0.8000E+01
      4.023  0.0000E+00  0.8000E+01
      4.060  0.0000E+00  0.8000E+01
      4.098  0.0000E+00  0.8000E+01
      4.136  0.0000E+00  0.8000E+01
      4.174  0.0000E+00  0.8000E+01
      4.212  0.0000E+00  0.8000E+01
      4.250  0.0000E+00  0.8000E+01
      4.288  0.0000E+00  0.8000E+01
      4.325  0.0000E+00  0.8000E+01
      4.363  0.0000E+00  0.8000E+01
      4.401  0.0000E+00  0.8000E+01
      4.439  0.0000E+00  0.8000E+01
      4.477  0.0000E+00  0.8000E+01
      4.515  0.0000E+00  0.8000E+01
      4.553  0.0000E+00  0.8000E+01
      4.591  0.0000E+00  0.8000E+01
      4.628  0.0000E+00  0.8000E+01
      4.666  0.0000E+00  0.8000E+01
      4.704  0.0000E+00  0.8000E+01
      4.742  0.0000E+00  0.8000E+01
      4.780  0.0000E+00  0.8000E+01
      4.818  0.0000E+00  0.8000E+01
      4.856  0.0000E+00  0.8000E+01
      4.893  0.0000E+00  0.8000E+01
      4.931  0.0000E+00  0.8000E+01
      4.969  0.0000E+00  0.8000E+01
      5.007  0.0000E+00  0.8000E+01
      5.045  0.0000E+00  0.8000E+01
      5.083  0.0000E+00  0.8000E+01
      5.121  0.0000E+00  0.8000E+01
      5.159  0.0000E+00  0.8000E+01
      5.196  0.0000E+00  0.8000E+01
      5.234  0.0000E+00  0.8000E+01
      5.272  0.0000E+00  0.8000E+01
      5.310  0.0000E+00  0.8000E+01
      5.348  0.0000E+00  0.8000E+01
      5.386  0.0000E+00  0.8000E+01
      5.424  0.0000E+00  0.8000E+01
      5.461  0.0000E+00  0.8000E+01
      5.499  0.0000E+00  0.8000E+01
      5.537  0.0000E+00  0.8000E+01
      5.575  0.0000E+00  0.8000E+01
      5.613  0.0000E+00  0.8000E+01
      5.651  0.0000E+00  0.8000E+01
      5.689  0.0000E+00  0.8000E+01
      5.727  0.0000E+00  0.8000E+01
      5.764  0.0000E+00  0.8000E+01
      5.802  0.0000E+00  0.8000E+01
      5.840  0.0000E+00  0.8000E+01
      5.878  0.0000E+00  0.8000E+01
      5.916  0.0000E+00  0.8000E+01
      5.954  0.0000E+00  0.8000E+01
      5.992  0.0000E+00  0.8000E+01
      6.029  0.0000E+00  0.8000E+01
      6.067  0.0000E+00  0.8000E+01
      6.105  0.0000E+00  0.8000E+01
      6.143  0.0000E+00  0.8000E+01
      6.181  0.0000E+00  0.8000E+01
      6.219  0.0000E+00  0.8000E+01
      6.257  0.0000E+00  0.8000E+01
      6.295  0.0000E+00  0.8000E+01
      6.332  0.0000E+00  0.8000E+01
      6.370  0.0000E+00  0.8000E+01
      6.408  0.0000E+00  0.8000E+01
      6.446  0.0000E+00  0.8000E+01
      6.484  0.0000E+00  0.8000E+01
      6.522  0.0000E+00  0.8000E+01
      6.560  0.0000E+00  0.8000E+01
      6.597  0.0000E+00  0.8000E+01
      6.635  0.0000E+00  0.8000E+01
      6.673  0.0000E+00  0.8000E+01
      6.711  0.0000E+00  0.8000E+01
      6.749  0.0000E+00  0.8000E+01
      6.787  0.0000E+00  0.8000E+01
      6.825  0.0000E+00  0.8000E+01
      6.862  0.0000E+00  0.8000E+01
      6.900  0.0000E+00  0.8000E+01
      6.938  0.0000E+00  0.8000E+01
      6.976  0.0000E+00  0.8000E+01
      7.014  0.0000E+00  0.8000E+01
      7.052  0.0000E+00  0.8000E+01
      7.090  0.0000E+00  0.8000E+01
      7.128  0.0000E+00  0.8000E+01
      7.165  0.0000E+00  0.8000E+01
      7.203  0.0000E+00  0.8000E+01
      7.241  0.0000E+00  0.8000E+01
      7.279  0.0000E+00  0.8000E+01
      7.317  0.0000E+00  0.8000E+01
      7.355  0.0000E+00  0.8000E+01
      7.393  0.0000E+00  0.8000E+01
      7.430  0.0000E+00  0.8000E+01
      7.468  0.0000E+00  0.8000E+01
      7.506  0.0000E+00  0.8000E+01
      7.544  0.0000E+00  0.8000E+01
      7.582  0.0000E+00  0.8000E+01
      7.620  0.0000E+00  0.8000E+01
      7.658  0.0000E+00  0.8000E+01
      7.696  0.0000E+00  0.8000E+01
      7.733  0.0000E+00  0.8000E+01
      7.771  0.0000E+00  0.8000E+01
      7.809  0.0000E+00  0.8000E+01
      7.847  0.0000E+00  0.8000E+01
      7.885  0.0000E+00  0.8000E+01
      7.923  0.0000E+00  0.8000E+01
      7.961  0.0000E+00  0.8000E+01
      7.998  0.0000E+00  0.8000E+01
      8.036  0.0000E+00  0.8000E+01
      8.074  0.0000E+00  0.8000E+01
      8.112  0.0000E+00  0.8000E+01
      8.150  0.0000E+00  0.8000E+01
      8.188  0.0000E+00  0.8000E+01
      8.226  0.0000E+00  0.8000E+01
      8.264  0.0000E+00  0.8000E+01
      8.301  0.0000E+00  0.8000E+01
      8.339  0.0000E+00  0.8000E+01
      8.377  0.0000E+00  0.8000E+01
      8.415  0.0000E+00  0.8000E+01
      8.453  0.0000E+00  0.8000E+01
      8.491  0.0000E+00  0.8000E+01
      8.529  0.0000E+00  0.8000E+01
      8.566  0.0000E+00  0.8000E+01
      8.604  0.0000E+00  0.8000E+01
      8.642  0.0000E+00  0.8000E+01
      8.680  0.0000E+00  0.8000E+01
      8.718  0.2733E-05  0.8000E+01
      8.756  0.3257E-03  0.8000E+01
      8.794  0.1186E-02  0.8000E+01
      8.832  0.2584E-02  0.8000E+01
      8.869  0.4519E-02  0.8000E+01
      8.907  0.6992E-02  0.8000E+01
      8.945  0.1000E-01  0.8001E+01
      8.983  0.1355E-01  0.8001E+01
      9.021  0.1747E-01  0.8002E+01
      9.059  0.1674E-01  0.8002E+01
      9.097  0.1694E-01  0.8003E+01
      9.134  0.1801E-01  0.8004E+01
      9.172  0.1928E-01  0.8004E+01
      9.210  0.2059E-01  0.8005E+01
      9.248  0.2193E-01  0.8006E+01
      9.286  0.2330E-01  0.8007E+01
      9.324  0.2470E-01  0.8008E+01
      9.362  0.2614E-01  0.8009E+01
      9.400  0.2760E-01  0.8010E+01
      9.437  0.2910E-01  0.8011E+01
      9.475  0.3063E-01  0.8012E+01
      9.513  0.3214E-01  0.8013E+01
      9.551  0.3360E-01  0.8014E+01
      9.589  0.3502E-01  0.8016E+01
      9.627  0.3639E-01  0.8017E+01
      9.665  0.3771E-01  0.8018E+01
      9.702  0.3899E-01  0.8020E+01
      9.740  0.4033E-01  0.8021E+01
      9.778  0.4178E-01  0.8023E+01
      9.816  0.4327E-01  0.8025E+01
      9.854  0.4478E-01  0.8026E+01
      9.892  0.4631E-01  0.8028E+01
      9.930  0.4786E-01  0.8030E+01
      9.968  0.4942E-01  0.8032E+01
     10.005  0.5100E-01  0.8033E+01
     10.043  0.5261E-01  0.8035E+01
     10.081  0.5423E-01  0.8037E+01
     10.119  0.5587E-01  0.8040E+01
     10.157  0.5753E-01  0.8042E+01
     10.195  0.5921E-01  0.8044E+01
     10.233  0.6092E-01  0.8046E+01
     10.270  0.6272E-01  0.8049E+01
     10.308  0.6462E-01  0.8051E+01
     10.346  0.6657E-01  0.8053E+01
     10.384  0.6857E-01  0.8056E+01
     10.422  0.7060E-01  0.8059E+01
     10.460  0.7267E-01  0.8061E+01
     10.498  0.7478E-01  0.8064E+01
     10.536  0.7694E-01  0.8067E+01
     10.573  0.7913E-01  0.8070E+01
     10.611  0.8137E-01  0.8073E+01
     10.649  0.8366E-01  0.8076E+01
     10.687  0.8598E-01  0.8079E+01
     10.725  0.8835E-01  0.8083E+01
     10.763  0.9076E-01  0.8086E+01
     10.801  0.9321E-01  0.8089E+01
     10.838  0.9570E-01  0.8093E+01
     10.876  0.9823E-01  0.8097E+01
     10.914  0.1008E+00  0.8101E+01
     10.952  0.1034E+00  0.8104E+01
     10.990  0.1060E+00  0.8108E+01
     11.028  0.1087E+00  0.8112E+01
     11.066  0.1116E+00  0.8117E+01
     11.104  0.1147E+00  0.8121E+01
     11.141  0.1181E+00  0.8125E+01
     11.179  0.1216E+00  0.8130E+01
     11.217  0.1253E+00  0.8134E+01
     11.255  0.1291E+00  0.8139E+01
     11.293  0.1331E+00  0.8144E+01
     11.331  0.1372E+00  0.8149E+01
     11.369  0.1415E+00  0.8155E+01
     11.406  0.1460E+00  0.8160E+01
     11.444  0.1507E+00  0.8166E+01
     11.482  0.1556E+00  0.8172E+01
     11.520  0.1606E+00  0.8177E+01