    2    2    1    1
  0.9345265E+01  0.2978829E-09  0.2978829E-09  0.2978829E-09  0.2500000E-15
  1.000000000000000E-004
  CAR 
 Mg1O1                                   
      8    120     10
 
  0.0000000E+00  0.0000000E+00  0.0000000E+00  0.2962963E-03
    1      -17.309901   1.000000
    2        1.532208   1.000000
    3        1.532212   1.000000
    4        1.532212   1.000000
    5        8.714118   0.000000
    6       20.079916   0.000000
    7       20.079916   0.000000
    8       20.079916   0.000000
    9       23.974225   0.000000
   10       25.952676   0.000000
 
  0.6666667E-01  0.0000000E+00  0.0000000E+00  0.2370370E-02
    1      -17.259998   1.000000
    2        1.216818   1.000000
    3        1.498323   1.000000
    4        1.498327   1.000000
    5        9.019739   0.000000
    6       19.383907   0.000000
    7       20.197725   0.000000
    8       20.197726   0.000000
    9       24.901423   0.000000
   10       25.559382   0.000000
 
  0.1333333E+00  0.0000000E+00  0.0000000E+00  0.2370370E-02
    1      -17.115737   1.000000
    2        0.435124   1.000000
    3        1.402961   1.000000
    4        1.402965   1.000000
    5        9.761351   0.000000
    6       18.227270   0.000000
    7       20.506333   0.000000
    8       20.506333   0.000000
    9       24.905923   0.000000
   10       24.905924   0.000000
 
  0.2000000E+00  0.0000000E+00  0.0000000E+00  0.2370370E-02
    1      -16.892945   1.000000
    2       -0.542335   1.000000
    3        1.268761   1.000000
    4        1.268765   1.000000
    5       10.627101   0.000000
    6       17.299639   0.000000
    7       20.852171   0.000000
    8       20.852171   0.000000
    9       24.524467   0.000000
   10       24.524468   0.000000
 
  0.2666667E+00  0.0000000E+00  0.0000000E+00  0.2370370E-02
    1      -16.623011   1.000000
    2       -1.530309   1.000000
    3        1.119338   1.000000
    4        1.119342   1.000000
    5       11.349128   0.000000
    6       16.791796   0.000000
    7       21.005230   0.000000
    8       21.005231   0.000000
    9       24.703511   0.000000
   10       24.703512   0.000000
 
  0.3333333E+00  0.0000000E+00  0.0000000E+00  0.2370370E-02
    1      -16.346864   1.000000
    2       -2.392497   1.000000
    3        0.979764   1.000000
    4        0.979768   1.000000
    5       11.773020   0.000000
    6       16.736748   0.000000
    7       20.919249   0.000000
    8       20.919250   0.000000
    9       25.424998   0.000000
   10       25.424998   0.000000
 
  0.4000000E+00  0.0000000E+00  0.0000000E+00  0.2370370E-02
    1      -16.115384   1.000000
    2       -3.035263   1.000000
    3        0.876906   1.000000
    4        0.876909   1.000000
    5       11.930943   0.000000
    6       16.956506   0.000000
    7       20.761689   0.000000
    8       20.761690   0.000000
    9       25.569207   0.000000
   10       26.362060   0.000000
 
  0.4666667E+00  0.0000000E+00  0.0000000E+00  0.2370370E-02
    1      -15.982020   1.000000
    2       -3.377813   1.000000
    3        0.820408   1.000000
    4        0.820412   1.000000
    5       11.962541   0.000000
    6       17.172005   0.000000
    7       20.658450   0.000000
    8       20.658451   0.000000
    9       25.378619   0.000000
   10       27.054428   0.000000
 
  0.6666667E-01  0.6666667E-01  0.0000000E+00  0.1777778E-02
    1      -17.243884   1.000000
    2        1.180284   1.000000
    3        1.453909   1.000000
    4        1.453912   1.000000
    5        9.120328   0.000000
    6       19.157038   0.000000
    7       20.254311   0.000000
    8       20.254311   0.000000
    9       24.882178   0.000000
   10       25.195938   0.000000
 
  0.1333333E+00  0.6666667E-01  0.0000000E+00  0.7111111E-02
    1      -17.131288   1.000000
    2        0.595900   1.000000
    3        1.352333   1.000000
    4        1.381461   1.000000
    5        9.714222   0.000000
    6       18.230595   0.000000
    7       20.499002   0.000000
    8       20.510823   0.000000
    9       24.040023   0.000000
   10       25.893138   0.000000
 
  0.2000000E+00  0.6666667E-01  0.0000000E+00  0.7111111E-02
    1      -16.935246   1.000000
    2       -0.281419   1.000000
    3        1.214055   1.000000
    4        1.264729   1.000000
    5       10.543311   0.000000
    6       17.315237   0.000000
    7       20.795996   0.000000
    8       20.840673   0.000000
    9       23.468877   0.000000
   10       25.547772   0.000000
 
  0.2666667E+00  0.6666667E-01  0.0000000E+00  0.7111111E-02
    1      -16.682323   1.000000
    2       -1.232316   1.000000
    3        1.062917   1.000000
    4        1.106250   1.000000
    5       11.331721   0.000000
    6       16.722939   0.000000
    7       20.848796   0.000000
    8       21.056126   0.000000
    9       23.531178   0.000000
   10       25.562323   0.000000
 
  0.3333333E+00  0.6666667E-01  0.0000000E+00  0.7111111E-02
    1      -16.407737   1.000000
    2       -2.108054   1.000000
    3        0.929308   1.000000
    4        0.936948   1.000000
    5       11.874628   0.000000
    6       16.571095   0.000000
    7       20.604246   0.000000
    8       21.057857   0.000000
    9       24.242697   0.000000
   10       26.048404   0.000000
 
  0.4000000E+00  0.6666667E-01  0.0000000E+00  0.7111111E-02
    1      -16.160424   1.000000
    2       -2.804814   1.000000
    3        0.788618   1.000000
    4        0.829923   1.000000
    5       12.119111   0.000000
    6       16.776003   0.000000
    7       20.321319   0.000000
    8       20.931489   0.000000
    9       25.220871   0.000000
   10       26.393086   0.000000
 
  0.4666667E+00  0.6666667E-01  0.0000000E+00  0.7111111E-02
    1      -15.993773   1.000000
    2       -3.238983   1.000000
    3        0.681277   1.000000
    4        0.781100   1.000000
    5       12.184396   0.000000
    6       17.050701   0.000000
    7       20.140044   0.000000
    8       20.809749   0.000000
    9       25.939434   0.000000
   10       26.395575   0.000000
 
 -0.4666667E+00  0.6666667E-01  0.0000000E+00  0.7111111E-02
    1      -15.948166   1.000000
    2       -3.350793   1.000000
    3        0.632674   1.000000
    4        0.789242   1.000000
    5       12.193906   0.000000
    6       17.146671   0.000000
    7       20.097055   0.000000
    8       20.770534   0.000000
    9       26.021823   0.000000
   10       26.827563   0.000000
 
 -0.4000000E+00  0.6666667E-01  0.0000000E+00  0.7111111E-02
    1      -16.037791   1.000000
    2       -3.126449   1.000000
    3        0.644977   1.000000
    4        0.851150   1.000000
    5       12.178626   0.000000
    6       16.980393   0.000000
    7       20.189705   0.000000
    8       20.843493   0.000000
    9       26.147377   0.000000
   10       26.214053   0.000000
 
 -0.3333333E+00  0.6666667E-01  0.0000000E+00  0.7111111E-02
    1      -16.236847   1.000000
    2       -2.595129   1.000000
    3        0.722628   1.000000
    4        0.960122   1.000000
    5       12.071586   0.000000
    6       16.706024   0.000000
    7       20.387926   0.000000
    8       21.018125   0.000000
    9       25.057535   0.000000
   10       26.156183   0.000000
 
 -0.2666667E+00  0.6666667E-01  0.0000000E+00  0.7111111E-02
    1      -16.498911   1.000000
    2       -1.829168   1.000000
    3        0.852601   1.000000
    4        1.102633   1.000000
    5       11.732609   0.000000
    6       16.607739   0.000000
    7       20.610251   0.000000
    8       21.205957   0.000000
    9       24.054863   0.000000
   10       25.579542   0.000000
 
 -0.2000000E+00  0.6666667E-01  0.0000000E+00  0.7111111E-02
    1      -16.771232   1.000000
    2       -0.920093   1.000000
    3        1.019329   1.000000
    4        1.253343   1.000000
    5       11.085440   0.000000
    6       16.921368   0.000000
    7       20.716441   0.000000
    8       21.158621   0.000000
    9       23.620752   0.000000
   10       25.190226   0.000000
 
 -0.1333333E+00  0.6666667E-01  0.0000000E+00  0.7111111E-02
    1      -17.008546   1.000000
    2        0.013168   1.000000
    3        1.200329   1.000000
    4        1.386716   1.000000
    5       10.249991   0.000000
    6       17.649597   0.000000
    7       20.608972   0.000000
    8       20.776929   0.000000
    9       23.935321   0.000000
   10       25.237888   0.000000
 
 -0.6666667E-01  0.6666667E-01  0.0000000E+00  0.3555556E-02
    1      -17.178765   1.000000
    2        0.797130   1.000000
    3        1.371824   1.000000
    4        1.473451   1.000000
    5        9.467506   0.000000
    6       18.620440   0.000000
    7       20.376272   0.000000
    8       20.386648   0.000000
    9       24.685106   0.000000
   10       25.560192   0.000000
 
  0.1333333E+00  0.1333333E+00  0.0000000E+00  0.1777778E-02
    1      -17.053565   1.000000
    2        0.358757   1.000000
    3        1.244728   1.000000
    4        1.244731   1.000000
    5       10.114562   0.000000
    6       17.617449   0.000000
    7       20.734943   0.000000
    8       20.734943   0.000000
    9       23.021478   0.000000
   10       26.513046   0.000000
 
  0.2000000E+00  0.1333333E+00  0.0000000E+00  0.7111111E-02
    1      -16.893072   1.000000
    2       -0.269999   1.000000
    3        1.101561   1.000000
    4        1.109878   1.000000
    5       10.810355   0.000000
    6       16.855512   0.000000
    7       20.952219   0.000000
    8       21.062704   0.000000
    9       22.292360   0.000000
   10       26.543254   0.000000
 
  0.2666667E+00  0.1333333E+00  0.0000000E+00  0.7111111E-02
    1      -16.667733   1.000000
    2       -1.056548   1.000000
    3        0.931625   1.000000
    4        0.950670   1.000000
    5       11.600809   0.000000
    6       16.283888   0.000000
    7       20.580072   0.000000
    8       21.331351   0.000000
    9       22.479564   0.000000
   10       26.539047   0.000000
 
  0.3333333E+00  0.1333333E+00  0.0000000E+00  0.7111111E-02
    1      -16.411241   1.000000
    2       -1.839566   1.000000
    3        0.712040   1.000000
    4        0.817052   1.000000
    5       12.255907   0.000000
    6       16.092592   0.000000
    7       19.965367   0.000000
    8       21.412415   0.000000
    9       23.208814   0.000000
   10       26.857400   0.000000
 
  0.4000000E+00  0.1333333E+00  0.0000000E+00  0.7111111E-02
    1      -16.165899   1.000000
    2       -2.506169   1.000000
    3        0.488912   1.000000
    4        0.721550   1.000000
    5       12.621333   0.000000
    6       16.319936   0.000000
    7       19.465317   0.000000
    8       21.330647   0.000000
    9       24.041899   0.000000
   10       27.402811   0.000000
 
  0.4666667E+00  0.1333333E+00  0.0000000E+00  0.7111111E-02
    1      -15.980245   1.000000
    2       -2.967394   1.000000
    3        0.302946   1.000000
    4        0.677715   1.000000
    5       12.753240   0.000000
    6       16.729979   0.000000
    7       19.149546   0.000000
    8       21.201110   0.000000
    9       24.808564   0.000000
   10       27.762124   0.000000
 
 -0.4666667E+00  0.1333333E+00  0.0000000E+00  0.7111111E-02
    1      -15.898777   1.000000
    2       -3.159452   1.000000
    3        0.178554   1.000000
    4        0.690788   1.000000
    5       12.795625   0.000000
    6       16.978530   0.000000
    7       19.028842   0.000000
    8       21.120958   0.000000
    9       25.452811   0.000000
   10       27.430291   0.000000
 
 -0.4000000E+00  0.1333333E+00  0.0000000E+00  0.7111111E-02
    1      -15.940179   1.000000
    2       -3.051721   1.000000
    3        0.138656   1.000000
    4        0.760828   1.000000
    5       12.806422   0.000000
    6       16.905752   0.000000
    7       19.102780   0.000000
    8       21.147611   0.000000
    9       25.949799   0.000000
   10       26.376405   0.000000
 
 -0.3333333E+00  0.1333333E+00  0.0000000E+00  0.7111111E-02
    1      -16.095778   1.000000
    2       -2.664580   1.000000
    3        0.190339   1.000000
    4        0.875275   1.000000
    5       12.734946   0.000000
    6       16.590273   0.000000
    7       19.363610   0.000000
    8       21.305550   0.000000
    9       25.025601   0.000000
   10       26.165314   0.000000
 
 -0.2666667E+00  0.1333333E+00  0.0000000E+00  0.7111111E-02
    1      -16.326535   1.000000
    2       -2.061161   1.000000
    3        0.338702   1.000000
    4        1.020545   1.000000
    5       12.440361   0.000000
    6       16.350482   0.000000
    7       19.763761   0.000000
    8       21.584023   0.000000
    9       23.739370   0.000000
   10       26.003809   0.000000
 
 -0.2000000E+00  0.1333333E+00  0.0000000E+00  0.7111111E-02
    1      -16.584138   1.000000
    2       -1.336519   1.000000
    3        0.576604   1.000000
    4        1.172755   1.000000
    5       11.826360   0.000000
    6       16.467674   0.000000
    7       20.202037   0.000000
    8       21.773797   0.000000
    9       22.896187   0.000000
   10       25.637497   0.000000
 
 -0.1333333E+00  0.1333333E+00  0.0000000E+00  0.3555556E-02
    1      -16.823413   1.000000
    2       -0.606390   1.000000
    3        0.883083   1.000000
    4        1.303409   1.000000
    5       11.016930   0.000000
    6       16.958142   0.000000
    7       20.526396   0.000000
    8       21.305198   0.000000
    9       23.150534   0.000000
   10       25.351193   0.000000
 
  0.2000000E+00  0.2000000E+00  0.0000000E+00  0.1777778E-02
    1      -16.770968   1.000000
    2       -0.596980   1.000000
    3        0.953883   1.000000
    4        0.953886   1.000000
    5       11.339587   0.000000
    6       16.188351   0.000000
    7       21.136863   0.000000
    8       21.411683   0.000000
    9       21.411683   0.000000
   10       27.200754   0.000000
 
  0.2666667E+00  0.2000000E+00  0.0000000E+00  0.7111111E-02
    1      -16.583092   1.000000
    2       -1.141215   1.000000
    3        0.770992   1.000000
    4        0.801409   1.000000
    5       12.030151   0.000000
    6       15.620593   0.000000
    7       20.171356   0.000000
    8       21.740465   0.000000
    9       21.981054   0.000000
   10       27.466318   0.000000
 
  0.3333333E+00  0.2000000E+00  0.0000000E+00  0.7111111E-02
    1      -16.356496   1.000000
    2       -1.733223   1.000000
    3        0.507501   1.000000
    4        0.668534   1.000000
    5       12.732236   0.000000
    6       15.362758   0.000000
    7       19.349403   0.000000
    8       21.909839   0.000000
    9       22.642498   0.000000
   10       27.756735   0.000000
 
  0.4000000E+00  0.2000000E+00  0.0000000E+00  0.7111111E-02
    1      -16.129551   1.000000
    2       -2.264185   1.000000
    3        0.187013   1.000000
    4        0.574607   1.000000
    5       13.212493   0.000000
    6       15.575381   0.000000
    7       18.709852   0.000000
    8       21.890140   0.000000
    9       23.253442   0.000000
   10       28.201955   0.000000
 
  0.4666667E+00  0.2000000E+00  0.0000000E+00  0.7111111E-02
    1      -15.943208   1.000000
    2       -2.652857   1.000000
    3       -0.124969   1.000000
    4        0.531934   1.000000
    5       13.423528   0.000000
    6       16.145708   0.000000
    7       18.269714   0.000000
    8       21.765577   0.000000
    9       23.744298   0.000000
   10       28.490160   0.000000
 
 -0.4666667E+00  0.2000000E+00  0.0000000E+00  0.7111111E-02
    1      -15.839271   1.000000
    2       -2.845408   1.000000
    3       -0.374527   1.000000
    4        0.548571   1.000000
    5       13.528090   0.000000
    6       16.646003   0.000000
    7       18.039325   0.000000
    8       21.643617   0.000000
    9       24.177371   0.000000
   10       28.082341   0.000000
 
 -0.4000000E+00  0.2000000E+00  0.0000000E+00  0.7111111E-02
    1      -15.840034   1.000000
    2       -2.811831   1.000000
    3       -0.509048   1.000000
    4        0.621575   1.000000
    5       13.600632   0.000000
    6       16.756897   0.000000
    7       18.051191   0.000000
    8       21.596756   0.000000
    9       24.726955   0.000000
   10       26.903800   0.000000
 
 -0.3333333E+00  0.2000000E+00  0.0000000E+00  0.7111111E-02
    1      -15.945755   1.000000
    2       -2.574229   1.000000
    3       -0.489642   1.000000
    4        0.741659   1.000000
    5       13.583835   0.000000
    6       16.466677   0.000000
    7       18.335067   0.000000
    8       21.670394   0.000000
    9       25.378642   0.000000
   10       25.428711   0.000000
 
 -0.2666667E+00  0.2000000E+00  0.0000000E+00  0.7111111E-02
    1      -16.132235   1.000000
    2       -2.198178   1.000000
    3       -0.289689   1.000000
    4        0.889845   1.000000
    5       13.304788   0.000000
    6       16.149594   0.000000
    7       18.846595   0.000000
    8       21.887005   0.000000
    9       24.005351   0.000000
   10       25.859565   0.000000
 
 -0.2000000E+00  0.2000000E+00  0.0000000E+00  0.3555556E-02
    1      -16.358858   1.000000
    2       -1.767896   1.000000
    3        0.090919   1.000000
    4        1.043821   1.000000
    5       12.656558   0.000000
    6       16.154529   0.000000
    7       19.509663   0.000000
    8       22.224502   0.000000
    9       22.830138   0.000000
   10       25.928414   0.000000
 
  0.2666667E+00  0.2666667E+00  0.0000000E+00  0.1777778E-02
    1      -16.437222   1.000000
    2       -1.466643   1.000000
    3        0.646413   1.000000
    4        0.646416   1.000000
    5       12.560713   0.000000
    6       15.004773   0.000000
    7       19.479101   0.000000
    8       22.153754   0.000000
    9       22.153755   0.000000
   10       28.133454   0.000000
 
  0.3333333E+00  0.2666667E+00  0.0000000E+00  0.7111111E-02
    1      -16.250322   1.000000
    2       -1.873549   1.000000
    3        0.436815   1.000000
    4        0.513160   1.000000
    5       13.170739   0.000000
    6       14.626940   0.000000
    7       18.773371   0.000000
    8       22.434448   0.000000
    9       22.590750   0.000000
   10       28.594993   0.000000
 
  0.4000000E+00  0.2666667E+00  0.0000000E+00  0.7111111E-02
    1      -16.055669   1.000000
    2       -2.233827   1.000000
    3        0.086416   1.000000
    4        0.417460   1.000000
    5       13.673141   0.000000
    6       14.711861   0.000000
    7       18.173977   0.000000
    8       22.502984   0.000000
    9       22.988930   0.000000
   10       29.065742   0.000000
 
  0.4666667E+00  0.2666667E+00  0.0000000E+00  0.7111111E-02
    1      -15.886502   1.000000
    2       -2.467798   1.000000
    3       -0.355812   1.000000
    4        0.375307   1.000000
    5       13.872333   0.000000
    6       15.383704   0.000000
    7       17.709603   0.000000
    8       22.408497   0.000000
    9       23.201250   0.000000
   10       29.419251   0.000000
 
 -0.4666667E+00  0.2666667E+00  0.0000000E+00  0.7111111E-02
    1      -15.777306   1.000000
    2       -2.538206   1.000000
    3       -0.795280   1.000000
    4        0.390839   1.000000
    5       14.028066   0.000000
    6       16.160696   0.000000
    7       17.383212   0.000000
    8       22.245383   0.000000
    9       23.290565   0.000000
   10       29.081180   0.000000
 
 -0.4000000E+00  0.2666667E+00  0.0000000E+00  0.7111111E-02
    1      -15.750477   1.000000
    2       -2.453970   1.000000
    3       -1.121399   1.000000
    4        0.465044   1.000000
    5       14.212292   0.000000
    6       16.603570   0.000000
    7       17.247640   0.000000
    8       22.099153   0.000000
    9       23.566083   0.000000
   10       27.848346   0.000000
 
 -0.3333333E+00  0.2666667E+00  0.0000000E+00  0.7111111E-02
    1      -15.812667   1.000000
    2       -2.318106   1.000000
    3       -1.183203   1.000000
    4        0.585073   1.000000
    5       14.301947   0.000000
    6       16.422977   0.000000
    7       17.517400   0.000000
    8       22.009906   0.000000
    9       24.252970   0.000000
   10       26.325241   0.000000
 
 -0.2666667E+00  0.2666667E+00  0.0000000E+00  0.3555556E-02
    1      -15.949601   1.000000
    2       -2.255230   1.000000
    3       -0.863103   1.000000
    4        0.734992   1.000000
    5       14.027394   0.000000
    6       16.145224   0.000000
    7       18.066779   0.000000
    8       21.972373   0.000000
    9       24.951800   0.000000
   10       25.159722   0.000000
 
  0.3333333E+00  0.3333333E+00  0.0000000E+00  0.1777778E-02
    1      -16.109718   1.000000
    2       -2.152167   1.000000
    3        0.374726   1.000000
    4        0.374728   1.000000
    5       13.559602   0.000000
    6       14.103126   0.000000
    7       18.273014   0.000000
    8       22.844652   0.000000
    9       22.844652   0.000000
   10       29.257088   0.000000
 
  0.4000000E+00  0.3333333E+00  0.0000000E+00  0.7111111E-02
    1      -15.956753   1.000000
    2       -2.407830   1.000000
    3        0.157630   1.000000
    4        0.277768   1.000000
    5       13.830738   0.000000
    6       14.051012   0.000000
    7       17.870185   0.000000
    8       23.042006   0.000000
    9       23.120624   0.000000
   10       29.833873   0.000000
 
  0.4666667E+00  0.3333333E+00  0.0000000E+00  0.7111111E-02
    1      -15.819527   1.000000
    2       -2.538390   1.000000
    3       -0.255389   1.000000
    4        0.231879   1.000000
    5       13.833526   0.000000
    6       14.693218   0.000000
    7       17.545722   0.000000
    8       23.012003   0.000000
    9       23.180543   0.000000
   10       30.370007   0.000000
 
 -0.4666667E+00  0.3333333E+00  0.0000000E+00  0.7111111E-02
    1      -15.724814   1.000000
    2       -2.490454   1.000000
    3       -0.802193   1.000000
    4        0.244910   1.000000
    5       14.002388   0.000000
    6       15.499670   0.000000
    7       17.263226   0.000000
    8       22.830037   0.000000
    9       23.002249   0.000000
   10       30.394941   0.000000
 
 -0.4000000E+00  0.3333333E+00  0.0000000E+00  0.7111111E-02
    1      -15.689448   1.000000
    2       -2.239775   1.000000
    3       -1.379651   1.000000
    4        0.315510   1.000000
    5       14.280823   0.000000
    6       16.283992   0.000000
    7       16.973281   0.000000
    8       22.578810   0.000000
    9       22.907491   0.000000
   10       29.207265   0.000000
 
 -0.3333333E+00  0.3333333E+00  0.0000000E+00  0.3555556E-02
    1      -15.721931   1.000000
    2       -1.927401   1.000000
    3       -1.771767   1.000000
    4        0.433927   1.000000
    5       14.500857   0.000000
    6       16.624950   0.000000
    7       16.912672   0.000000
    8       22.304125   0.000000
    9       23.305394   0.000000
   10       27.652121   0.000000
 
  0.4000000E+00  0.4000000E+00  0.0000000E+00  0.1777778E-02
    1      -15.850320   1.000000
    2       -2.616906   1.000000
    3        0.174601   1.000000
    4        0.174604   1.000000
    5       13.496988   0.000000
    6       14.078599   0.000000
    7       17.722185   0.000000
    8       23.382996   0.000000
    9       23.382996   0.000000
   10       30.438196   0.000000
 
  0.4666667E+00  0.4000000E+00  0.0000000E+00  0.7111111E-02
    1      -15.755990   1.000000
    2       -2.725700   1.000000
    3       -0.026674   1.000000
    4        0.124210   1.000000
    5       13.442624   0.000000
    6       14.296180   0.000000
    7       17.613230   0.000000
    8       23.455436   0.000000
    9       23.465014   0.000000
   10       30.594380   0.000000
 
 -0.4666667E+00  0.4000000E+00  0.0000000E+00  0.7111111E-02
    1      -15.690590   1.000000
    2       -2.673925   1.000000
    3       -0.449840   1.000000
    4        0.133325   1.000000
    5       13.650456   0.000000
    6       14.789720   0.000000
    7       17.465657   0.000000
    8       23.213994   0.000000
    9       23.314751   0.000000
   10       30.876206   0.000000
 
 -0.4000000E+00  0.4000000E+00  0.0000000E+00  0.3555556E-02
    1      -15.667565   1.000000
    2       -2.461351   1.000000
    3       -0.988598   1.000000
    4        0.200931   1.000000
    5       13.980985   0.000000
    6       15.532852   0.000000
    7       17.230755   0.000000
    8       22.881504   0.000000
    9       22.999532   0.000000
   10       30.883424   0.000000
 
  0.4666667E+00  0.4666667E+00  0.0000000E+00  0.1777778E-02
    1      -15.708017   1.000000
    2       -2.848953   1.000000
    3        0.067889   1.000000
    4        0.067891   1.000000
    5       13.192661   0.000000
    6       14.165711   0.000000
    7       17.673391   0.000000
    8       23.677741   0.000000
    9       23.677742   0.000000
   10       30.145655   0.000000
 
 -0.4666667E+00  0.4666667E+00  0.0000000E+00  0.3555556E-02
    1      -15.684913   1.000000
    2       -2.830616   1.000000
    3       -0.090602   1.000000
    4        0.071112   1.000000
    5       13.297469   0.000000
    6       14.314973   0.000000
    7       17.629021   0.000000
    8       23.565823   0.000000
    9       23.618113   0.000000
   10       30.261770   0.000000
 
  0.2000000E+00  0.1333333E+00  0.6666667E-01  0.7111111E-02
    1      -16.994352   1.000000
    2        0.036629   1.000000
    3        1.146682   1.000000
    4        1.316127   1.000000
    5       10.353277   0.000000
    6       17.451775   0.000000
    7       20.673398   0.000000
    8       20.860250   0.000000
    9       23.216472   0.000000
   10       25.896376   0.000000
 
  0.2666667E+00  0.1333333E+00  0.6666667E-01  0.1422222E-01
    1      -16.783484   1.000000
    2       -0.737875   1.000000
    3        0.912899   1.000000
    4        1.207170   1.000000
    5       11.165888   0.000000
    6       16.748639   0.000000
    7       20.628086   0.000000
    8       21.303089   0.000000
    9       22.800759   0.000000
   10       25.829587   0.000000
 
  0.3333333E+00  0.1333333E+00  0.6666667E-01  0.1422222E-01
    1      -16.528209   1.000000
    2       -1.564644   1.000000
    3        0.696811   1.000000
    4        1.060471   1.000000
    5       11.907773   0.000000
    6       16.366980   0.000000
    7       20.287548   0.000000
    8       21.446792   0.000000
    9       23.170173   0.000000
   10       26.065212   0.000000
 
  0.4000000E+00  0.1333333E+00  0.6666667E-01  0.1422222E-01
    1      -16.267877   1.000000
    2       -2.312216   1.000000
    3        0.518445   1.000000
    4        0.912814   1.000000
    5       12.380810   0.000000
    6       16.407372   0.000000
    7       19.861668   0.000000
    8       21.298247   0.000000
    9       24.096376   0.000000
   10       26.517579   0.000000
 
  0.4666667E+00  0.1333333E+00  0.6666667E-01  0.1422222E-01
    1      -16.052214   1.000000
    2       -2.879540   1.000000
    3        0.393295   1.000000
    4        0.792579   1.000000
    5       12.567803   0.000000
    6       16.727026   0.000000
    7       19.525721   0.000000
    8       21.114483   0.000000
    9       25.126641   0.000000
   10       26.814867   0.000000
 
 -0.4666667E+00  0.1333333E+00  0.6666667E-01  0.1422222E-01
    1      -15.929266   1.000000
    2       -3.186536   1.000000
    3        0.328551   1.000000
    4        0.725393   1.000000
    5       12.610165   0.000000
    6       17.001018   0.000000
    7       19.349483   0.000000
    8       21.003176   0.000000
    9       25.922098   0.000000
   10       26.713870   0.000000
 
  0.2666667E+00  0.2000000E+00  0.6666667E-01  0.7111111E-02
    1      -16.717956   1.000000
    2       -0.812841   1.000000
    3        0.836836   1.000000
    4        1.028539   1.000000
    5       11.503462   0.000000
    6       16.226495   0.000000
    7       20.637044   0.000000
    8       21.556628   0.000000
    9       21.945860   0.000000
   10       26.760805   0.000000
 
  0.3333333E+00  0.2000000E+00  0.6666667E-01  0.1422222E-01
    1      -16.492067   1.000000
    2       -1.450961   1.000000
    3        0.556644   1.000000
    4        0.898246   1.000000
    5       12.267738   0.000000
    6       15.818985   0.000000
    7       19.899514   0.000000
    8       21.791634   0.000000
    9       22.433710   0.000000
   10       26.950820   0.000000
 
  0.4000000E+00  0.2000000E+00  0.6666667E-01  0.1422222E-01
    1      -16.250164   1.000000
    2       -2.070359   1.000000
    3        0.288274   1.000000
    4        0.752628   1.000000
    5       12.877293   0.000000
    6       15.808012   0.000000
    7       19.225982   0.000000
    8       21.705826   0.000000
    9       23.252874   0.000000
   10       27.278571   0.000000
 
  0.4666667E+00  0.2000000E+00  0.6666667E-01  0.1422222E-01
    1      -16.035339   1.000000
    2       -2.578324   1.000000
    3        0.054792   1.000000
    4        0.638600   1.000000
    5       13.180076   0.000000
    6       16.198047   0.000000
    7       18.724802   0.000000
    8       21.535391   0.000000
    9       24.044955   0.000000
   10       27.525445   0.000000
 
 -0.4666667E+00  0.2000000E+00  0.6666667E-01  0.1422222E-01
    1      -15.891529   1.000000
    2       -2.894891   1.000000
    3       -0.120543   1.000000
    4        0.585643   1.000000
    5       13.285130   0.000000
    6       16.667082   0.000000
    7       18.431704   0.000000
    8       21.385889   0.000000
    9       24.697222   0.000000
   10       27.389654   0.000000
 
 -0.4000000E+00  0.2000000E+00  0.6666667E-01  0.1422222E-01
    1      -15.853213   1.000000
    2       -2.969554   1.000000
    3       -0.213419   1.000000
    4        0.601459   1.000000
    5       13.323956   0.000000
    6       16.847453   0.000000
    7       18.361913   0.000000
    8       21.328428   0.000000