Automatically generated mesh
     120
Reciprocal lattice
    0.00000000000000    0.00000000000000    0.00000000000000             1
    0.06666666666667    0.00000000000000    0.00000000000000             8
    0.13333333333333    0.00000000000000    0.00000000000000             8
    0.20000000000000    0.00000000000000    0.00000000000000             8
    0.26666666666667    0.00000000000000    0.00000000000000             8
    0.33333333333333    0.00000000000000    0.00000000000000             8
    0.40000000000000    0.00000000000000    0.00000000000000             8
    0.46666666666667    0.00000000000000    0.00000000000000             8
    0.06666666666667    0.06666666666667    0.00000000000000             6
    0.13333333333333    0.06666666666667    0.00000000000000            24
    0.20000000000000    0.06666666666667    0.00000000000000            24
    0.26666666666667    0.06666666666667    0.00000000000000            24
    0.33333333333333    0.06666666666667    0.00000000000000            24
    0.40000000000000    0.06666666666667    0.00000000000000            24
    0.46666666666667    0.06666666666667    0.00000000000000            24
   -0.46666666666667    0.06666666666667    0.00000000000000            24
   -0.40000000000000    0.06666666666667    0.00000000000000            24
   -0.33333333333333    0.06666666666667    0.00000000000000            24
   -0.26666666666667    0.06666666666667    0.00000000000000            24
   -0.20000000000000    0.06666666666667    0.00000000000000            24
   -0.13333333333333    0.06666666666667    0.00000000000000            24
   -0.06666666666667    0.06666666666667    0.00000000000000            12
    0.13333333333333    0.13333333333333    0.00000000000000             6
    0.20000000000000    0.13333333333333    0.00000000000000            24
    0.26666666666667    0.13333333333333    0.00000000000000            24
    0.33333333333333    0.13333333333333    0.00000000000000            24
    0.40000000000000    0.13333333333333    0.00000000000000            24
    0.46666666666667    0.13333333333333    0.00000000000000            24
   -0.46666666666667    0.13333333333333    0.00000000000000            24
   -0.40000000000000    0.13333333333333    0.00000000000000            24
   -0.33333333333333    0.13333333333333    0.00000000000000            24
   -0.26666666666667    0.13333333333333    0.00000000000000            24
   -0.20000000000000    0.13333333333333    0.00000000000000            24
   -0.13333333333333    0.13333333333333    0.00000000000000            12
    0.20000000000000    0.20000000000000    0.00000000000000             6
    0.26666666666667    0.20000000000000    0.00000000000000            24
    0.33333333333333    0.20000000000000    0.00000000000000            24
    0.40000000000000    0.20000000000000    0.00000000000000            24
    0.46666666666667    0.20000000000000    0.00000000000000            24
   -0.46666666666667    0.20000000000000    0.00000000000000            24
   -0.40000000000000    0.20000000000000    0.00000000000000            24
   -0.33333333333333    0.20000000000000    0.00000000000000            24
   -0.26666666666667    0.20000000000000    0.00000000000000            24
   -0.20000000000000    0.20000000000000    0.00000000000000            12
    0.26666666666667    0.26666666666667    0.00000000000000             6
    0.33333333333333    0.26666666666667    0.00000000000000            24
    0.40000000000000    0.26666666666667    0.00000000000000            24
    0.46666666666667    0.26666666666667    0.00000000000000            24
   -0.46666666666667    0.26666666666667    0.00000000000000            24
   -0.40000000000000    0.26666666666667    0.00000000000000            24
   -0.33333333333333    0.26666666666667    0.00000000000000            24
   -0.26666666666667    0.26666666666667    0.00000000000000            12
    0.33333333333333    0.33333333333333    0.00000000000000             6
    0.40000000000000    0.33333333333333    0.00000000000000            24
    0.46666666666667    0.33333333333333    0.00000000000000            24
   -0.46666666666667    0.33333333333333    0.00000000000000            24
   -0.40000000000000    0.33333333333333    0.00000000000000            24
   -0.33333333333333    0.33333333333333    0.00000000000000            12
    0.40000000000000    0.40000000000000    0.00000000000000             6
    0.46666666666667    0.40000000000000    0.00000000000000            24
   -0.46666666666667    0.40000000000000    0.00000000000000            24
   -0.40000000000000    0.40000000000000    0.00000000000000            12
    0.46666666666667    0.46666666666667    0.00000000000000             6
   -0.46666666666667    0.46666666666667    0.00000000000000            12
    0.20000000000000    0.13333333333333    0.06666666666667            24
    0.26666666666667    0.13333333333333    0.06666666666667            48
    0.33333333333333    0.13333333333333    0.06666666666667            48
    0.40000000000000    0.13333333333333    0.06666666666667            48
    0.46666666666667    0.13333333333333    0.06666666666667            48
   -0.46666666666667    0.13333333333333    0.06666666666667            48
    0.26666666666667    0.20000000000000    0.06666666666667            24
    0.33333333333333    0.20000000000000    0.06666666666667            48
    0.40000000000000    0.20000000000000    0.06666666666667            48
    0.46666666666667    0.20000000000000    0.06666666666667            48
   -0.46666666666667    0.20000000000000    0.06666666666667            48
   -0.40000000000000    0.20000000000000    0.06666666666667            48
   -0.33333333333333    0.20000000000000    0.06666666666667            48
   -0.26666666666667    0.20000000000000    0.06666666666667            48
   -0.20000000000000    0.20000000000000    0.06666666666667            48
   -0.13333333333333    0.20000000000000    0.06666666666667            24
    0.33333333333333    0.26666666666667    0.06666666666667            24
    0.40000000000000    0.26666666666667    0.06666666666667            48
    0.46666666666667    0.26666666666667    0.06666666666667            48
   -0.46666666666667    0.26666666666667    0.06666666666667            48
   -0.40000000000000    0.26666666666667    0.06666666666667            48
   -0.33333333333333    0.26666666666667    0.06666666666667            48
   -0.26666666666667    0.26666666666667    0.06666666666667            48
   -0.20000000000000    0.26666666666667    0.06666666666667            24
    0.40000000000000    0.33333333333333    0.06666666666667            24
    0.46666666666667    0.33333333333333    0.06666666666667            48
   -0.46666666666667    0.33333333333333    0.06666666666667            48
   -0.40000000000000    0.33333333333333    0.06666666666667            48
   -0.33333333333333    0.33333333333333    0.06666666666667            48
   -0.26666666666667    0.33333333333333    0.06666666666667            24
    0.46666666666667    0.40000000000000    0.06666666666667            24
   -0.46666666666667    0.40000000000000    0.06666666666667            48
   -0.40000000000000    0.40000000000000    0.06666666666667            48
   -0.33333333333333    0.40000000000000    0.06666666666667            24
   -0.46666666666667    0.46666666666667    0.06666666666667            24
   -0.40000000000000    0.46666666666667    0.06666666666667            24
    0.40000000000000    0.26666666666667    0.13333333333333            24
    0.46666666666667    0.26666666666667    0.13333333333333            48
   -0.46666666666667    0.26666666666667    0.13333333333333            48
   -0.40000000000000    0.26666666666667    0.13333333333333            48
    0.46666666666667    0.33333333333333    0.13333333333333            24
   -0.46666666666667    0.33333333333333    0.13333333333333            48
   -0.40000000000000    0.33333333333333    0.13333333333333            48
   -0.33333333333333    0.33333333333333    0.13333333333333            48
   -0.26666666666667    0.33333333333333    0.13333333333333            48
   -0.20000000000000    0.33333333333333    0.13333333333333            24
   -0.46666666666667    0.40000000000000    0.13333333333333            24
   -0.40000000000000    0.40000000000000    0.13333333333333            48
   -0.33333333333333    0.40000000000000    0.13333333333333            48
   -0.26666666666667    0.40000000000000    0.13333333333333            24
   -0.40000000000000    0.46666666666667    0.13333333333333            24
   -0.33333333333333    0.46666666666667    0.13333333333333            24
   -0.40000000000000    0.40000000000000    0.20000000000000            24
   -0.33333333333333    0.40000000000000    0.20000000000000            48
   -0.33333333333333    0.46666666666667    0.20000000000000            24
   -0.26666666666667    0.46666666666667    0.20000000000000            24
Tetrahedra
       484    0.00004938271605
        24         1         2         2         9
        48         2         9        10        22
        48         2         3        10        22
        24         2         2         9        22
        48         3        10        11        21
        48         3         4        11        21
        48         3        10        21        22
        48         4        11        12        20
        48         4         5        12        20
        48         4        11        20        21
        48         5        12        13        19
        48         5         6        13        19
        48         5        12        19        20
        48         6        13        14        18
        48         6         7        14        18
        48         6        13        18        19
        48         7        14        15        17
        48         7         8        15        17
        48         7        14        17        18
        48         8        15        16        16
        24         8         8        16        16
        48         8        15        16        17
        24         9        10        10        23
        24         9        10        10        22
        48        10        23        24        65
        48        10        11        24        65
        48        10        11        21        65
        24        10        10        23        65
        24        10        10        22        65
        48        10        21        22        65
        48        11        24        25        66
        48        11        12        25        66
        48        11        12        20        66
        48        11        24        65        66
        48        11        21        65        66
        48        11        20        21        66
        48        12        25        26        67
        48        12        13        26        67
        48        12        13        19        67
        48        12        25        66        67
        48        12        20        66        67
        48        12        19        20        67
        48        13        26        27        68
        48        13        14        27        68
        48        13        14        18        68
        48        13        26        67        68
        48        13        19        67        68
        48        13        18        19        68
        48        14        27        28        69
        48        14        15        28        69
        48        14        15        17        69
        48        14        27        68        69
        48        14        18        68        69
        48        14        17        18        69
        48        15        28        29        70
        48        15        16        29        70
        48        15        16        16        70
        48        15        28        69        70
        48        15        17        69        70
        48        15        16        17        70
        48        16        29        30        70
        48        16        17        30        70
        48        16        29        70        70
        24        16        16        70        70
        48        17        30        31        69
        48        17        18        31        69
        48        17        30        69        70
        48        18        31        32        68
        48        18        19        32        68
        48        18        31        68        69
        48        19        32        33        67
        48        19        20        33        67
        48        19        32        67        68
        48        20        33        34        66
        48        20        21        34        66
        48        20        33        66        67
        24        21        21        34        65
        24        21        21        22        65
        48        21        34        65        66
        24        23        24        24        35
        24        23        24        24        65
        48        24        35        36        71
        48        24        25        36        71
        48        24        25        66        71
        24        24        24        35        71
        24        24        24        65        71
        48        24        65        66        71
        48        25        36        37        72
        48        25        26        37        72
        48        25        26        67        72
        48        25        36        71        72
        48        25        66        71        72
        48        25        66        67        72
        48        26        37        38        73
        48        26        27        38        73
        48        26        27        68        73
        48        26        37        72        73
        48        26        67        72        73
        48        26        67        68        73
        48        27        38        39        74
        48        27        28        39        74
        48        27        28        69        74
        48        27        38        73        74
        48        27        68        73        74
        48        27        68        69        74
        48        28        39        40        75
        48        28        29        40        75
        48        28        29        70        75
        48        28        39        74        75
        48        28        69        74        75
        48        28        69        70        75
        48        29        40        41        76
        48        29        30        41        76
        48        29        30        70        76
        48        29        40        75        76
        48        29        70        75        76
        48        29        70        70        76
        48        30        41        42        77
        48        30        31        42        77
        48        30        31        69        77
        48        30        41        76        77
        48        30        70        76        77
        48        30        69        70        77
        48        31        42        43        78
        48        31        32        43        78
        48        31        32        68        78
        48        31        42        77        78
        48        31        69        77        78
        48        31        68        69        78
        48        32        43        44        79
        48        32        33        44        79
        48        32        33        67        79
        48        32        43        78        79
        48        32        68        78        79
        48        32        67        68        79
        24        33        33        44        80
        24        33        33        34        80
        48        33        34        66        80
        48        33        44        79        80
        48        33        67        79        80
        48        33        66        67        80
        24        34        66        66        80
        24        34        65        66        66
        24        35        36        36        45
        24        35        36        36        71
        48        36        45        46        81
        48        36        37        46        81
        48        36        37        72        81
        24        36        36        45        81
        24        36        36        71        81
        48        36        71        72        81
        48        37        46        47        82
        48        37        38        47        82
        48        37        38        73        82
        48        37        46        81        82
        48        37        72        81        82
        48        37        72        73        82
        48        38        47        48        83
        48        38        39        48        83
        48        38        39        74        83
        48        38        47        82        83
        48        38        73        82        83
        48        38        73        74        83
        48        39        48        49        84
        48        39        40        49        84
        48        39        40        75        84
        48        39        48        83        84
        48        39        74        83        84
        48        39        74        75        84
        48        40        49        50        85
        48        40        41        50        85
        48        40        41        76        85
        48        40        49        84        85
        48        40        75        84        85
        48        40        75        76        85
        48        41        50        51        86
        48        41        42        51        86
        48        41        42        77        86
        48        41        50        85        86
        48        41        76        85        86
        48        41        76        77        86
        48        42        51        52        87
        48        42        43        52        87
        48        42        43        78        87
        48        42        51        86        87
        48        42        77        86        87
        48        42        77        78        87
        24        43        43        52        88
        24        43        43        44        88
        48        43        44        79        88
        48        43        52        87        88
        48        43        78        87        88
        48        43        78        79        88
        24        44        79        79        88
        24        44        79        79        80
        24        45        46        46        53
        24        45        46        46        81
        48        46        53        54        89
        48        46        47        54        89
        48        46        47        82        89
        24        46        46        53        89
        24        46        46        81        89
        48        46        81        82        89
        48        47        54        55        90
        48        47        48        55        90
        48        47        48        83        90
        48        47        54        89        90
        48        47        82        89        90
        48        47        82        83        90
        48        48        55        56        91
        48        48        49        56        91
        48        48        49        84        91
        48        48        55        90        91
        48        48        83        90        91
        48        48        83        84        91
        48        49        56        57        92
        48        49        50        57        92
        48        49        50        85        92
        48        49        56        91        92
        48        49        84        91        92
        48        49        84        85        92
        48        50        57        58        93
        48        50        51        58        93
        48        50        51        86        93
        48        50        57        92        93
        48        50        85        92        93
        48        50        85        86        93
        24        51        51        58        94
        24        51        51        52        94
        48        51        52        87        94
        48        51        58        93        94
        48        51        86        93        94
        48        51        86        87        94
        24        52        87        87        94
        24        52        87        87        88
        24        53        54        54        59
        24        53        54        54        89
        48        54        59        60        95
        48        54        55        60        95
        48        54        55        90        95
        24        54        54        59        95
        24        54        54        89        95
        48        54        89        90        95
        48        55        60        61        96
        48        55        56        61        96
        48        55        56        91        96
        48        55        60        95        96
        48        55        90        95        96
        48        55        90        91        96
        48        56        61        62        97
        48        56        57        62        97
        48        56        57        92        97
        48        56        61        96        97
        48        56        91        96        97
        48        56        91        92        97
        24        57        57        62        98
        24        57        57        58        98
        48        57        58        93        98
        48        57        62        97        98
        48        57        92        97        98
        48        57        92        93        98
        24        58        93        93        98
        24        58        93        93        94
        24        59        60        60        63
        24        59        60        60        95
        48        60        63        64        99
        48        60        61        64        99
        48        60        61        96        99
        24        60        60        63        99
        24        60        60        95        99
        48        60        95        96        99
        24        61        61        64       100
        24        61        61        62       100
        48        61        62        97       100
        48        61        64        99       100
        48        61        96        99       100
        48        61        96        97       100
        24        62        97        97       100
        24        62        97        97        98
        12        63        63        64        64
        24        63        64        64        99
        12        64        64        99        99
        24        64        99        99       100
        24        65        66        66        71
        48        66        71        72        80
        48        66        67        72        80
        24        66        66        71        80
        48        67        72        73        79
        48        67        68        73        79
        48        67        72        79        80
        48        68        73        74        78
        48        68        69        74        78
        48        68        73        78        79
        48        69        74        75        77
        48        69        70        75        77
        48        69        74        77        78
        48        70        75        76        76
        24        70        70        76        76
        48        70        75        76        77
        24        71        72        72        81
        24        71        72        72        80
        48        72        81        82       101
        48        72        73        82       101
        48        72        73        79       101
        24        72        72        81       101
        24        72        72        80       101
        48        72        79        80       101
        48        73        82        83       102
        48        73        74        83       102
        48        73        74        78       102
        48        73        82       101       102
        48        73        79       101       102
        48        73        78        79       102
        48        74        83        84       103
        48        74        75        84       103
        48        74        75        77       103
        48        74        83       102       103
        48        74        78       102       103
        48        74        77        78       103
        48        75        84        85       104
        48        75        76        85       104
        48        75        76        76       104
        48        75        84       103       104
        48        75        77       103       104
        48        75        76        77       104
        48        76        85        86       104
        48        76        77        86       104
        48        76        85       104       104
        24        76        76       104       104
        48        77        86        87       103
        48        77        78        87       103
        48        77        86       103       104
        48        78        87        88       102
        48        78        79        88       102
        48        78        87       102       103
        24        79        79        88       101
        24        79        79        80       101
        48        79        88       101       102
        24        81        82        82        89
        24        81        82        82       101
        48        82        89        90       105
        48        82        83        90       105
        48        82        83       102       105
        24        82        82        89       105
        24        82        82       101       105
        48        82       101       102       105
        48        83        90        91       106
        48        83        84        91       106
        48        83        84       103       106
        48        83        90       105       106
        48        83       102       105       106
        48        83       102       103       106
        48        84        91        92       107
        48        84        85        92       107
        48        84        85       104       107
        48        84        91       106       107
        48        84       103       106       107
        48        84       103       104       107
        48        85        92        93       108
        48        85        86        93       108
        48        85        86       104       108
        48        85        92       107       108
        48        85       104       107       108
        48        85       104       104       108
        48        86        93        94       109
        48        86        87        94       109
        48        86        87       103       109
        48        86        93       108       109
        48        86       104       108       109
        48        86       103       104       109
        24        87        87        94       110
        24        87        87        88       110
        48        87        88       102       110
        48        87        94       109       110
        48        87       103       109       110
        48        87       102       103       110
        24        88       102       102       110
        24        88       101       102       102
        24        89        90        90        95
        24        89        90        90       105
        48        90        95        96       111
        48        90        91        96       111
        48        90        91       106       111
        24        90        90        95       111
        24        90        90       105       111
        48        90       105       106       111
        48        91        96        97       112
        48        91        92        97       112
        48        91        92       107       112
        48        91        96       111       112
        48        91       106       111       112
        48        91       106       107       112
        48        92        97        98       113
        48        92        93        98       113
        48        92        93       108       113
        48        92        97       112       113
        48        92       107       112       113
        48        92       107       108       113
        24        93        93        98       114
        24        93        93        94       114
        48        93        94       109       114
        48        93        98       113       114
        48        93       108       113       114
        48        93       108       109       114
        24        94       109       109       114
        24        94       109       109       110
        24        95        96        96        99
        24        95        96        96       111
        48        96        99       100       115