 running on   40 total cores
 distrk:  each k-point on   20 cores,    2 groups
 distr:  one band on    4 cores,    5 groups
 using from now: INCAR     
 vasp.5.4.1 24Jun15 (build Dec 08 2018 00:28:02) complex                        
  
 POSCAR found type information on POSCAR  Mg O 
 POSCAR found :  2 types and       2 ions
 scaLAPACK will be used

 ----------------------------------------------------------------------------- 
|                                                                             |
|           W    W    AA    RRRRR   N    N  II  N    N   GGGG   !!!           |
|           W    W   A  A   R    R  NN   N  II  NN   N  G    G  !!!           |
|           W    W  A    A  R    R  N N  N  II  N N  N  G       !!!           |
|           W WW W  AAAAAA  RRRRR   N  N N  II  N  N N  G  GGG   !            |
|           WW  WW  A    A  R   R   N   NN  II  N   NN  G    G                |
|           W    W  A    A  R    R  N    N  II  N    N   GGGG   !!!           |
|                                                                             |
|      You have enabled k-point parallelism (KPAR>1).                         |
|      This developmental code was originally  written by Paul Kent at ORNL,  |
|      and carefully double checked in Vienna.                                |
|      GW as well as linear response parallelism added by Martijn Marsman     |
|      and Georg Kresse.                                                      |
|      Carefully verify results versus KPAR=1.                                |
|      Report problems to Paul Kent and Vienna.                               |
|                                                                             |
 ----------------------------------------------------------------------------- 

 LDA part: xc-table for Pade appr. of Perdew
 POSCAR, INCAR and KPOINTS ok, starting setup
 WARNING: small aliasing (wrap around) errors must be expected
 FFT: planning ...
 WAVECAR not read
 WARNING: random wavefunctions but no delay for mixing, default for NELMDL
 entering main loop
       N       E                     dE             d eps       ncg     rms          rms(c)
DAV:   1     0.205503356911E+03    0.20550E+03   -0.16009E+04  3560   0.872E+02
DAV:   2     0.113356930578E+02   -0.19417E+03   -0.19277E+03  3780   0.320E+02
DAV:   3     0.968787472684E+01   -0.16478E+01   -0.16478E+01  3060   0.296E+01
DAV:   4     0.968458826324E+01   -0.32865E-02   -0.32864E-02  3480   0.129E+00
DAV:   5    -0.164588135085E+02   -0.26143E+02   -0.85313E+00  2470   0.147E+01    0.654E+00
DAV:   6    -0.147797503374E+02    0.16791E+01   -0.39931E+00  2440   0.121E+01    0.218E+00
DAV:   7    -0.148300919015E+02   -0.50342E-01   -0.12467E+00  2670   0.639E+00    0.186E+00
DAV:   8    -0.148261614134E+02    0.39305E-02   -0.11815E-02  2730   0.105E+00    0.111E+00
DAV:   9    -0.148164508573E+02    0.97106E-02   -0.27262E-02  2540   0.130E+00    0.492E-01
DAV:  10    -0.148155983643E+02    0.85249E-03   -0.24761E-03  2810   0.459E-01    0.267E-01
DAV:  11    -0.148149776638E+02    0.62070E-03   -0.42386E-04  2560   0.165E-01    0.166E-01
DAV:  12    -0.148148187943E+02    0.15887E-03   -0.25873E-04  2710   0.116E-01    0.107E-01
DAV:  13    -0.148147795907E+02    0.39204E-04   -0.43867E-05  2700   0.693E-02    0.658E-02
DAV:  14    -0.148147682865E+02    0.11304E-04   -0.15337E-05  2670   0.471E-02    0.390E-02
DAV:  15    -0.148147661576E+02    0.21289E-05   -0.57761E-06  2710   0.283E-02    0.234E-02
DAV:  16    -0.148147660883E+02    0.69249E-07   -0.22644E-06  2570   0.167E-02
   1 F= -.14814766E+02 E0= -.14814766E+02  d E =0.000000E+00
