   2   2   0   0
  0.9345265E+01  0.2978829E-09  0.2978829E-09  0.2978829E-09  0.2500000E-15
  1.000000000000000E-004
  CAR 
 Mg1O1                                   
     28.48261583    -19.49037407 1401      1.55135029      1.00000000
    -19.490  0.0000E+00  0.0000E+00
    -19.456  0.0000E+00  0.0000E+00
    -19.422  0.0000E+00  0.0000E+00
    -19.388  0.0000E+00  0.0000E+00
    -19.353  0.0000E+00  0.0000E+00
    -19.319  0.0000E+00  0.0000E+00
    -19.285  0.0000E+00  0.0000E+00
    -19.251  0.0000E+00  0.0000E+00
    -19.216  0.0000E+00  0.0000E+00
    -19.182  0.0000E+00  0.0000E+00
    -19.148  0.0000E+00  0.0000E+00
    -19.113  0.0000E+00  0.0000E+00
    -19.079  0.0000E+00  0.0000E+00
    -19.045  0.0000E+00  0.0000E+00
    -19.011  0.0000E+00  0.0000E+00
    -18.976  0.0000E+00  0.0000E+00
    -18.942  0.0000E+00  0.0000E+00
    -18.908  0.0000E+00  0.0000E+00
    -18.874  0.0000E+00  0.0000E+00
    -18.839  0.0000E+00  0.0000E+00
    -18.805  0.0000E+00  0.0000E+00
    -18.771  0.0000E+00  0.0000E+00
    -18.737  0.0000E+00  0.0000E+00
    -18.702  0.0000E+00  0.0000E+00
    -18.668  0.0000E+00  0.0000E+00
    -18.634  0.0000E+00  0.0000E+00
    -18.599  0.0000E+00  0.0000E+00
    -18.565  0.0000E+00  0.0000E+00
    -18.531  0.0000E+00  0.0000E+00
    -18.497  0.0000E+00  0.0000E+00
    -18.462  0.0000E+00  0.0000E+00
    -18.428  0.0000E+00  0.0000E+00
    -18.394  0.0000E+00  0.0000E+00
    -18.360  0.0000E+00  0.0000E+00
    -18.325  0.0000E+00  0.0000E+00
    -18.291  0.0000E+00  0.0000E+00
    -18.257  0.0000E+00  0.0000E+00
    -18.223  0.0000E+00  0.0000E+00
    -18.188  0.0000E+00  0.0000E+00
    -18.154  0.0000E+00  0.0000E+00
    -18.120  0.0000E+00  0.0000E+00
    -18.085  0.0000E+00  0.0000E+00
    -18.051  0.0000E+00  0.0000E+00
    -18.017  0.0000E+00  0.0000E+00
    -17.983  0.0000E+00  0.0000E+00
    -17.948  0.0000E+00  0.0000E+00
    -17.914  0.0000E+00  0.0000E+00
    -17.880  0.0000E+00  0.0000E+00
    -17.846  0.0000E+00  0.0000E+00
    -17.811  0.0000E+00  0.0000E+00
    -17.777  0.0000E+00  0.0000E+00
    -17.743  0.0000E+00  0.0000E+00
    -17.709  0.0000E+00  0.0000E+00
    -17.674  0.0000E+00  0.0000E+00
    -17.640  0.0000E+00  0.0000E+00
    -17.606  0.0000E+00  0.0000E+00
    -17.571  0.0000E+00  0.0000E+00
    -17.537  0.0000E+00  0.0000E+00
    -17.503  0.0000E+00  0.0000E+00
    -17.469  0.0000E+00  0.0000E+00
    -17.434  0.0000E+00  0.0000E+00
    -17.400  0.0000E+00  0.0000E+00
    -17.366  0.0000E+00  0.0000E+00
    -17.332  0.0000E+00  0.0000E+00
    -17.297  0.3055E-01  0.1269E-03
    -17.263  0.9020E-01  0.2369E-02
    -17.229  0.1197E+00  0.6019E-02
    -17.195  0.1513E+00  0.1069E-01
    -17.160  0.1726E+00  0.1624E-01
    -17.126  0.1982E+00  0.2258E-01
    -17.092  0.2184E+00  0.2973E-01
    -17.057  0.2397E+00  0.3758E-01
    -17.023  0.2630E+00  0.4619E-01
    -16.989  0.2828E+00  0.5555E-01
    -16.955  0.3034E+00  0.6559E-01
    -16.920  0.3250E+00  0.7635E-01
    -16.886  0.3468E+00  0.8786E-01
    -16.852  0.3685E+00  0.1001E+00
    -16.818  0.3913E+00  0.1131E+00
    -16.783  0.4146E+00  0.1269E+00
    -16.749  0.4387E+00  0.1416E+00
    -16.715  0.4640E+00  0.1570E+00
    -16.681  0.4900E+00  0.1734E+00
    -16.646  0.5166E+00  0.1906E+00
    -16.612  0.5464E+00  0.2088E+00
    -16.578  0.5776E+00  0.2281E+00
    -16.543  0.6095E+00  0.2484E+00
    -16.509  0.6421E+00  0.2698E+00
    -16.475  0.6793E+00  0.2925E+00
    -16.441  0.7197E+00  0.3164E+00
    -16.406  0.7617E+00  0.3418E+00
    -16.372  0.8058E+00  0.3686E+00
    -16.338  0.8569E+00  0.3971E+00
    -16.304  0.9159E+00  0.4275E+00
    -16.269  0.9784E+00  0.4599E+00
    -16.235  0.1044E+01  0.4945E+00
    -16.201  0.1125E+01  0.5316E+00
    -16.167  0.1220E+01  0.5717E+00
    -16.132  0.1323E+01  0.6153E+00
    -16.098  0.1438E+01  0.6625E+00
    -16.064  0.1603E+01  0.7145E+00
    -16.029  0.1809E+01  0.7729E+00
    -15.995  0.2082E+01  0.8392E+00
    -15.961  0.2679E+01  0.9197E+00
    -15.927  0.2814E+01  0.1016E+01
    -15.892  0.2860E+01  0.1112E+01
    -15.858  0.3009E+01  0.1213E+01
    -15.824  0.3110E+01  0.1318E+01
    -15.790  0.3304E+01  0.1428E+01
    -15.755  0.3526E+01  0.1544E+01
    -15.721  0.3953E+01  0.1672E+01
    -15.687  0.5377E+01  0.1826E+01
    -15.653  0.2232E+01  0.1978E+01
    -15.618  0.0000E+00  0.2000E+01
    -15.584  0.0000E+00  0.2000E+01
    -15.550  0.0000E+00  0.2000E+01
    -15.515  0.0000E+00  0.2000E+01
    -15.481  0.0000E+00  0.2000E+01
    -15.447  0.0000E+00  0.2000E+01
    -15.413  0.0000E+00  0.2000E+01
    -15.378  0.0000E+00  0.2000E+01
    -15.344  0.0000E+00  0.2000E+01
    -15.310  0.0000E+00  0.2000E+01
    -15.276  0.0000E+00  0.2000E+01
    -15.241  0.0000E+00  0.2000E+01
    -15.207  0.0000E+00  0.2000E+01
    -15.173  0.0000E+00  0.2000E+01
    -15.139  0.0000E+00  0.2000E+01
    -15.104  0.0000E+00  0.2000E+01
    -15.070  0.0000E+00  0.2000E+01
    -15.036  0.0000E+00  0.2000E+01
    -15.001  0.0000E+00  0.2000E+01
    -14.967  0.0000E+00  0.2000E+01
    -14.933  0.0000E+00  0.2000E+01
    -14.899  0.0000E+00  0.2000E+01
    -14.864  0.0000E+00  0.2000E+01
    -14.830  0.0000E+00  0.2000E+01
    -14.796  0.0000E+00  0.2000E+01
    -14.762  0.0000E+00  0.2000E+01
    -14.727  0.0000E+00  0.2000E+01
    -14.693  0.0000E+00  0.2000E+01
    -14.659  0.0000E+00  0.2000E+01
    -14.625  0.0000E+00  0.2000E+01
    -14.590  0.0000E+00  0.2000E+01
    -14.556  0.0000E+00  0.2000E+01
    -14.522  0.0000E+00  0.2000E+01
    -14.487  0.0000E+00  0.2000E+01
    -14.453  0.0000E+00  0.2000E+01
    -14.419  0.0000E+00  0.2000E+01
    -14.385  0.0000E+00  0.2000E+01
    -14.350  0.0000E+00  0.2000E+01
    -14.316  0.0000E+00  0.2000E+01
    -14.282  0.0000E+00  0.2000E+01
    -14.248  0.0000E+00  0.2000E+01
    -14.213  0.0000E+00  0.2000E+01
    -14.179  0.0000E+00  0.2000E+01
    -14.145  0.0000E+00  0.2000E+01
    -14.111  0.0000E+00  0.2000E+01
    -14.076  0.0000E+00  0.2000E+01
    -14.042  0.0000E+00  0.2000E+01
    -14.008  0.0000E+00  0.2000E+01
    -13.973  0.0000E+00  0.2000E+01
    -13.939  0.0000E+00  0.2000E+01
    -13.905  0.0000E+00  0.2000E+01
    -13.871  0.0000E+00  0.2000E+01
    -13.836  0.0000E+00  0.2000E+01
    -13.802  0.0000E+00  0.2000E+01
    -13.768  0.0000E+00  0.2000E+01
    -13.734  0.0000E+00  0.2000E+01
    -13.699  0.0000E+00  0.2000E+01
    -13.665  0.0000E+00  0.2000E+01
    -13.631  0.0000E+00  0.2000E+01
    -13.597  0.0000E+00  0.2000E+01
    -13.562  0.0000E+00  0.2000E+01
    -13.528  0.0000E+00  0.2000E+01
    -13.494  0.0000E+00  0.2000E+01
    -13.459  0.0000E+00  0.2000E+01
    -13.425  0.0000E+00  0.2000E+01
    -13.391  0.0000E+00  0.2000E+01
    -13.357  0.0000E+00  0.2000E+01
    -13.322  0.0000E+00  0.2000E+01
    -13.288  0.0000E+00  0.2000E+01
    -13.254  0.0000E+00  0.2000E+01
    -13.220  0.0000E+00  0.2000E+01
    -13.185  0.0000E+00  0.2000E+01
    -13.151  0.0000E+00  0.2000E+01
    -13.117  0.0000E+00  0.2000E+01
    -13.083  0.0000E+00  0.2000E+01
    -13.048  0.0000E+00  0.2000E+01
    -13.014  0.0000E+00  0.2000E+01
    -12.980  0.0000E+00  0.2000E+01
    -12.945  0.0000E+00  0.2000E+01
    -12.911  0.0000E+00  0.2000E+01
    -12.877  0.0000E+00  0.2000E+01
    -12.843  0.0000E+00  0.2000E+01
    -12.808  0.0000E+00  0.2000E+01
    -12.774  0.0000E+00  0.2000E+01
    -12.740  0.0000E+00  0.2000E+01
    -12.706  0.0000E+00  0.2000E+01
    -12.671  0.0000E+00  0.2000E+01
    -12.637  0.0000E+00  0.2000E+01
    -12.603  0.0000E+00  0.2000E+01
    -12.569  0.0000E+00  0.2000E+01
    -12.534  0.0000E+00  0.2000E+01
    -12.500  0.0000E+00  0.2000E+01
    -12.466  0.0000E+00  0.2000E+01
    -12.431  0.0000E+00  0.2000E+01
    -12.397  0.0000E+00  0.2000E+01
    -12.363  0.0000E+00  0.2000E+01
    -12.329  0.0000E+00  0.2000E+01
    -12.294  0.0000E+00  0.2000E+01
    -12.260  0.0000E+00  0.2000E+01
    -12.226  0.0000E+00  0.2000E+01
    -12.192  0.0000E+00  0.2000E+01
    -12.157  0.0000E+00  0.2000E+01
    -12.123  0.0000E+00  0.2000E+01
    -12.089  0.0000E+00  0.2000E+01
    -12.055  0.0000E+00  0.2000E+01
    -12.020  0.0000E+00  0.2000E+01
    -11.986  0.0000E+00  0.2000E+01
    -11.952  0.0000E+00  0.2000E+01
    -11.917  0.0000E+00  0.2000E+01
    -11.883  0.0000E+00  0.2000E+01
    -11.849  0.0000E+00  0.2000E+01
    -11.815  0.0000E+00  0.2000E+01
    -11.780  0.0000E+00  0.2000E+01
    -11.746  0.0000E+00  0.2000E+01
    -11.712  0.0000E+00  0.2000E+01
    -11.678  0.0000E+00  0.2000E+01
    -11.643  0.0000E+00  0.2000E+01
    -11.609  0.0000E+00  0.2000E+01
    -11.575  0.0000E+00  0.2000E+01
    -11.541  0.0000E+00  0.2000E+01
    -11.506  0.0000E+00  0.2000E+01
    -11.472  0.0000E+00  0.2000E+01
    -11.438  0.0000E+00  0.2000E+01
    -11.403  0.0000E+00  0.2000E+01
    -11.369  0.0000E+00  0.2000E+01
    -11.335  0.0000E+00  0.2000E+01
    -11.301  0.0000E+00  0.2000E+01
    -11.266  0.0000E+00  0.2000E+01
    -11.232  0.0000E+00  0.2000E+01
    -11.198  0.0000E+00  0.2000E+01
    -11.164  0.0000E+00  0.2000E+01
    -11.129  0.0000E+00  0.2000E+01
    -11.095  0.0000E+00  0.2000E+01
    -11.061  0.0000E+00  0.2000E+01
    -11.027  0.0000E+00  0.2000E+01
    -10.992  0.0000E+00  0.2000E+01
    -10.958  0.0000E+00  0.2000E+01
    -10.924  0.0000E+00  0.2000E+01
    -10.890  0.0000E+00  0.2000E+01
    -10.855  0.0000E+00  0.2000E+01
    -10.821  0.0000E+00  0.2000E+01
    -10.787  0.0000E+00  0.2000E+01
    -10.752  0.0000E+00  0.2000E+01
    -10.718  0.0000E+00  0.2000E+01
    -10.684  0.0000E+00  0.2000E+01
    -10.650  0.0000E+00  0.2000E+01
    -10.615  0.0000E+00  0.2000E+01
    -10.581  0.0000E+00  0.2000E+01
    -10.547  0.0000E+00  0.2000E+01
    -10.513  0.0000E+00  0.2000E+01
    -10.478  0.0000E+00  0.2000E+01
    -10.444  0.0000E+00  0.2000E+01
    -10.410  0.0000E+00  0.2000E+01
    -10.376  0.0000E+00  0.2000E+01
    -10.341  0.0000E+00  0.2000E+01
    -10.307  0.0000E+00  0.2000E+01
    -10.273  0.0000E+00  0.2000E+01
    -10.238  0.0000E+00  0.2000E+01
    -10.204  0.0000E+00  0.2000E+01
    -10.170  0.0000E+00  0.2000E+01
    -10.136  0.0000E+00  0.2000E+01
    -10.101  0.0000E+00  0.2000E+01
    -10.067  0.0000E+00  0.2000E+01
    -10.033  0.0000E+00  0.2000E+01
     -9.999  0.0000E+00  0.2000E+01
     -9.964  0.0000E+00  0.2000E+01
     -9.930  0.0000E+00  0.2000E+01
     -9.896  0.0000E+00  0.2000E+01
     -9.862  0.0000E+00  0.2000E+01
     -9.827  0.0000E+00  0.2000E+01
     -9.793  0.0000E+00  0.2000E+01
     -9.759  0.0000E+00  0.2000E+01
     -9.724  0.0000E+00  0.2000E+01
     -9.690  0.0000E+00  0.2000E+01
     -9.656  0.0000E+00  0.2000E+01
     -9.622  0.0000E+00  0.2000E+01
     -9.587  0.0000E+00  0.2000E+01
     -9.553  0.0000E+00  0.2000E+01
     -9.519  0.0000E+00  0.2000E+01
     -9.485  0.0000E+00  0.2000E+01
     -9.450  0.0000E+00  0.2000E+01
     -9.416  0.0000E+00  0.2000E+01
     -9.382  0.0000E+00  0.2000E+01
     -9.348  0.0000E+00  0.2000E+01
     -9.313  0.0000E+00  0.2000E+01
     -9.279  0.0000E+00  0.2000E+01
     -9.245  0.0000E+00  0.2000E+01
     -9.210  0.0000E+00  0.2000E+01
     -9.176  0.0000E+00  0.2000E+01
     -9.142  0.0000E+00  0.2000E+01
     -9.108  0.0000E+00  0.2000E+01
     -9.073  0.0000E+00  0.2000E+01
     -9.039  0.0000E+00  0.2000E+01
     -9.005  0.0000E+00  0.2000E+01
     -8.971  0.0000E+00  0.2000E+01
     -8.936  0.0000E+00  0.2000E+01
     -8.902  0.0000E+00  0.2000E+01
     -8.868  0.0000E+00  0.2000E+01
     -8.834  0.0000E+00  0.2000E+01
     -8.799  0.0000E+00  0.2000E+01
     -8.765  0.0000E+00  0.2000E+01
     -8.731  0.0000E+00  0.2000E+01
     -8.696  0.0000E+00  0.2000E+01
     -8.662  0.0000E+00  0.2000E+01
     -8.628  0.0000E+00  0.2000E+01
     -8.594  0.0000E+00  0.2000E+01
     -8.559  0.0000E+00  0.2000E+01
     -8.525  0.0000E+00  0.2000E+01
     -8.491  0.0000E+00  0.2000E+01
     -8.457  0.0000E+00  0.2000E+01
     -8.422  0.0000E+00  0.2000E+01
     -8.388  0.0000E+00  0.2000E+01
     -8.354  0.0000E+00  0.2000E+01
     -8.320  0.0000E+00  0.2000E+01
     -8.285  0.0000E+00  0.2000E+01
     -8.251  0.0000E+00  0.2000E+01
     -8.217  0.0000E+00  0.2000E+01
     -8.182  0.0000E+00  0.2000E+01
     -8.148  0.0000E+00  0.2000E+01
     -8.114  0.0000E+00  0.2000E+01
     -8.080  0.0000E+00  0.2000E+01
     -8.045  0.0000E+00  0.2000E+01
     -8.011  0.0000E+00  0.2000E+01
     -7.977  0.0000E+00  0.2000E+01
     -7.943  0.0000E+00  0.2000E+01
     -7.908  0.0000E+00  0.2000E+01
     -7.874  0.0000E+00  0.2000E+01
     -7.840  0.0000E+00  0.2000E+01
     -7.806  0.0000E+00  0.2000E+01
     -7.771  0.0000E+00  0.2000E+01
     -7.737  0.0000E+00  0.2000E+01
     -7.703  0.0000E+00  0.2000E+01
     -7.668  0.0000E+00  0.2000E+01
     -7.634  0.0000E+00  0.2000E+01
     -7.600  0.0000E+00  0.2000E+01
     -7.566  0.0000E+00  0.2000E+01
     -7.531  0.0000E+00  0.2000E+01
     -7.497  0.0000E+00  0.2000E+01
     -7.463  0.0000E+00  0.2000E+01
     -7.429  0.0000E+00  0.2000E+01
     -7.394  0.0000E+00  0.2000E+01
     -7.360  0.0000E+00  0.2000E+01
     -7.326  0.0000E+00  0.2000E+01
     -7.292  0.0000E+00  0.2000E+01
     -7.257  0.0000E+00  0.2000E+01
     -7.223  0.0000E+00  0.2000E+01
     -7.189  0.0000E+00  0.2000E+01
     -7.154  0.0000E+00  0.2000E+01
     -7.120  0.0000E+00  0.2000E+01
     -7.086  0.0000E+00  0.2000E+01
     -7.052  0.0000E+00  0.2000E+01
     -7.017  0.0000E+00  0.2000E+01
     -6.983  0.0000E+00  0.2000E+01
     -6.949  0.0000E+00  0.2000E+01
     -6.915  0.0000E+00  0.2000E+01
     -6.880  0.0000E+00  0.2000E+01
     -6.846  0.0000E+00  0.2000E+01
     -6.812  0.0000E+00  0.2000E+01
     -6.778  0.0000E+00  0.2000E+01
     -6.743  0.0000E+00  0.2000E+01
     -6.709  0.0000E+00  0.2000E+01
     -6.675  0.0000E+00  0.2000E+01
     -6.640  0.0000E+00  0.2000E+01
     -6.606  0.0000E+00  0.2000E+01
     -6.572  0.0000E+00  0.2000E+01
     -6.538  0.0000E+00  0.2000E+01
     -6.503  0.0000E+00  0.2000E+01
     -6.469  0.0000E+00  0.2000E+01
     -6.435  0.0000E+00  0.2000E+01
     -6.401  0.0000E+00  0.2000E+01
     -6.366  0.0000E+00  0.2000E+01
     -6.332  0.0000E+00  0.2000E+01
     -6.298  0.0000E+00  0.2000E+01
     -6.264  0.0000E+00  0.2000E+01
     -6.229  0.0000E+00  0.2000E+01
     -6.195  0.0000E+00  0.2000E+01
     -6.161  0.0000E+00  0.2000E+01
     -6.126  0.0000E+00  0.2000E+01
     -6.092  0.0000E+00  0.2000E+01
     -6.058  0.0000E+00  0.2000E+01
     -6.024  0.0000E+00  0.2000E+01
     -5.989  0.0000E+00  0.2000E+01
     -5.955  0.0000E+00  0.2000E+01
     -5.921  0.0000E+00  0.2000E+01
     -5.887  0.0000E+00  0.2000E+01
     -5.852  0.0000E+00  0.2000E+01
     -5.818  0.0000E+00  0.2000E+01
     -5.784  0.0000E+00  0.2000E+01
     -5.750  0.0000E+00  0.2000E+01
     -5.715  0.0000E+00  0.2000E+01
     -5.681  0.0000E+00  0.2000E+01
     -5.647  0.0000E+00  0.2000E+01
     -5.612  0.0000E+00  0.2000E+01
     -5.578  0.0000E+00  0.2000E+01
     -5.544  0.0000E+00  0.2000E+01
     -5.510  0.0000E+00  0.2000E+01
     -5.475  0.0000E+00  0.2000E+01
     -5.441  0.0000E+00  0.2000E+01
     -5.407  0.0000E+00  0.2000E+01
     -5.373  0.0000E+00  0.2000E+01
     -5.338  0.0000E+00  0.2000E+01
     -5.304  0.0000E+00  0.2000E+01
     -5.270  0.0000E+00  0.2000E+01
     -5.236  0.0000E+00  0.2000E+01
     -5.201  0.0000E+00  0.2000E+01
     -5.167  0.0000E+00  0.2000E+01
     -5.133  0.0000E+00  0.2000E+01
     -5.098  0.0000E+00  0.2000E+01
     -5.064  0.0000E+00  0.2000E+01
     -5.030  0.0000E+00  0.2000E+01
     -4.996  0.0000E+00  0.2000E+01
     -4.961  0.0000E+00  0.2000E+01
     -4.927  0.0000E+00  0.2000E+01
     -4.893  0.0000E+00  0.2000E+01
     -4.859  0.0000E+00  0.2000E+01
     -4.824  0.0000E+00  0.2000E+01
     -4.790  0.0000E+00  0.2000E+01
     -4.756  0.0000E+00  0.2000E+01
     -4.722  0.0000E+00  0.2000E+01
     -4.687  0.0000E+00  0.2000E+01
     -4.653  0.0000E+00  0.2000E+01
     -4.619  0.0000E+00  0.2000E+01
     -4.584  0.0000E+00  0.2000E+01
     -4.550  0.0000E+00  0.2000E+01
     -4.516  0.0000E+00  0.2000E+01
     -4.482  0.0000E+00  0.2000E+01
     -4.447  0.0000E+00  0.2000E+01
     -4.413  0.0000E+00  0.2000E+01
     -4.379  0.0000E+00  0.2000E+01
     -4.345  0.0000E+00  0.2000E+01
     -4.310  0.0000E+00  0.2000E+01
     -4.276  0.0000E+00  0.2000E+01
     -4.242  0.0000E+00  0.2000E+01
     -4.208  0.0000E+00  0.2000E+01
     -4.173  0.0000E+00  0.2000E+01
     -4.139  0.0000E+00  0.2000E+01
     -4.105  0.0000E+00  0.2000E+01
     -4.070  0.0000E+00  0.2000E+01
     -4.036  0.0000E+00  0.2000E+01
     -4.002  0.0000E+00  0.2000E+01
     -3.968  0.0000E+00  0.2000E+01
     -3.933  0.0000E+00  0.2000E+01
     -3.899  0.0000E+00  0.2000E+01
     -3.865  0.0000E+00  0.2000E+01
     -3.831  0.0000E+00  0.2000E+01
     -3.796  0.0000E+00  0.2000E+01
     -3.762  0.0000E+00  0.2000E+01
     -3.728  0.0000E+00  0.2000E+01
     -3.694  0.0000E+00  0.2000E+01
     -3.659  0.0000E+00  0.2000E+01
     -3.625  0.0000E+00  0.2000E+01
     -3.591  0.0000E+00  0.2000E+01
     -3.556  0.0000E+00  0.2000E+01
     -3.522  0.0000E+00  0.2000E+01
     -3.488  0.0000E+00  0.2000E+01
     -3.454  0.0000E+00  0.2000E+01
     -3.419  0.0000E+00  0.2000E+01
     -3.385  0.8667E-01  0.2002E+01
     -3.351  0.1591E+00  0.2006E+01
     -3.317  0.1916E+00  0.2012E+01
     -3.282  0.2267E+00  0.2019E+01
     -3.248  0.2668E+00  0.2027E+01
     -3.214  0.2940E+00  0.2037E+01
     -3.180  0.3191E+00  0.2048E+01
     -3.145  0.3488E+00  0.2059E+01
     -3.111  0.3770E+00  0.2072E+01
     -3.077  0.4061E+00  0.2085E+01
     -3.042  0.4314E+00  0.2099E+01
     -3.008  0.4590E+00  0.2115E+01
     -2.974  0.4868E+00  0.2131E+01
     -2.940  0.5139E+00  0.2148E+01
     -2.905  0.5433E+00  0.2166E+01
     -2.871  0.5744E+00  0.2185E+01
     -2.837  0.7355E+00  0.2208E+01
     -2.803  0.8335E+00  0.2235E+01
     -2.768  0.9187E+00  0.2265E+01
     -2.734  0.1004E+01  0.2298E+01
     -2.700  0.1090E+01  0.2334E+01
     -2.666  0.1193E+01  0.2373E+01
     -2.631  0.1309E+01  0.2416E+01
     -2.597  0.1436E+01  0.2463E+01
     -2.563  0.1571E+01  0.2514E+01
     -2.528  0.1803E+01  0.2571E+01
     -2.494  0.2319E+01  0.2640E+01
     -2.460  0.2389E+01  0.2721E+01
     -2.426  0.2274E+01  0.2800E+01
     -2.391  0.2266E+01  0.2878E+01
     -2.357  0.2240E+01  0.2955E+01
     -2.323  0.2203E+01  0.3031E+01
     -2.289  0.2221E+01  0.3107E+01
     -2.254  0.2048E+01  0.3185E+01
     -2.220  0.1756E+01  0.3249E+01
     -2.186  0.1447E+01  0.3304E+01
     -2.152  0.1317E+01  0.3351E+01
     -2.117  0.1217E+01  0.3394E+01
     -2.083  0.1080E+01  0.3433E+01
     -2.049  0.9744E+00  0.3468E+01
     -2.014  0.8889E+00  0.3500E+01
     -1.980  0.8101E+00  0.3530E+01
     -1.946  0.7176E+00  0.3556E+01
     -1.912  0.6436E+00  0.3579E+01
     -1.877  0.5767E+00  0.3600E+01
     -1.843  0.4979E+00  0.3618E+01
     -1.809  0.4540E+00  0.3635E+01
     -1.775  0.4272E+00  0.3650E+01
     -1.740  0.3523E+00  0.3663E+01
     -1.706  0.3605E+00  0.3675E+01
     -1.672  0.3891E+00  0.3687E+01
     -1.638  0.4318E+00  0.3702E+01
     -1.603  0.4499E+00  0.3717E+01
     -1.569  0.6085E+00  0.3735E+01
     -1.535  0.6320E+00  0.3756E+01
     -1.501  0.6452E+00  0.3778E+01
     -1.466  0.6630E+00  0.3801E+01
     -1.432  0.6817E+00  0.3824E+01
     -1.398  0.6970E+00  0.3847E+01
     -1.363  0.7106E+00  0.3871E+01
     -1.329  0.7252E+00  0.3896E+01
     -1.295  0.7414E+00  0.3921E+01
     -1.261  0.7600E+00  0.3947E+01
     -1.226  0.7740E+00  0.3973E+01
     -1.192  0.7834E+00  0.4000E+01
     -1.158  0.7923E+00  0.4027E+01
     -1.124  0.8037E+00  0.4054E+01
     -1.089  0.8144E+00  0.4082E+01
     -1.055  0.8223E+00  0.4110E+01
     -1.021  0.8308E+00  0.4138E+01
     -0.987  0.8428E+00  0.4167E+01
     -0.952  0.8542E+00  0.4196E+01
     -0.918  0.8637E+00  0.4225E+01
     -0.884  0.8714E+00  0.4255E+01
     -0.849  0.8764E+00  0.4285E+01
     -0.815  0.8810E+00  0.4315E+01
     -0.781  0.8859E+00  0.4346E+01
     -0.747  0.8895E+00  0.4376E+01
     -0.712  0.8961E+00  0.4407E+01
     -0.678  0.9047E+00  0.4437E+01
     -0.644  0.9165E+00  0.4469E+01
     -0.610  0.9238E+00  0.4500E+01
     -0.575  0.9292E+00  0.4532E+01
     -0.541  0.9322E+00  0.4564E+01
     -0.507  0.9344E+00  0.4596E+01
     -0.473  0.9360E+00  0.4628E+01
     -0.438  0.9410E+00  0.4660E+01
     -0.404  0.9458E+00  0.4692E+01
     -0.370  0.9564E+00  0.4725E+01
     -0.335  0.1063E+01  0.4759E+01
     -0.301  0.1111E+01  0.4797E+01
     -0.267  0.1189E+01  0.4836E+01
     -0.233  0.1236E+01  0.4878E+01
     -0.198  0.1290E+01  0.4921E+01
     -0.164  0.1359E+01  0.4966E+01
     -0.130  0.1438E+01  0.5014E+01
     -0.096  0.1521E+01  0.5065E+01
     -0.061  0.1599E+01  0.5119E+01
     -0.027  0.1717E+01  0.5175E+01
      0.007  0.1871E+01  0.5237E+01
      0.041  0.2082E+01  0.5304E+01
      0.076  0.2337E+01  0.5382E+01
      0.110  0.2326E+01  0.5462E+01
      0.144  0.2358E+01  0.5543E+01
      0.179  0.2377E+01  0.5624E+01
      0.213  0.2378E+01  0.5705E+01
      0.247  0.2404E+01  0.5787E+01
      0.281  0.2424E+01  0.5870E+01
      0.316  0.2430E+01  0.5953E+01
      0.350  0.2423E+01  0.6036E+01
      0.384  0.2478E+01  0.6120E+01
      0.418  0.2507E+01  0.6206E+01
      0.453  0.2508E+01  0.6292E+01
      0.487  0.2525E+01  0.6378E+01
      0.521  0.2553E+01  0.6465E+01
      0.555  0.2554E+01  0.6552E+01
      0.590  0.2581E+01  0.6640E+01
      0.624  0.2631E+01  0.6730E+01
      0.658  0.2649E+01  0.6820E+01
      0.693  0.2680E+01  0.6911E+01
      0.727  0.2685E+01  0.7003E+01
      0.761  0.2746E+01  0.7096E+01
      0.795  0.2757E+01  0.7190E+01
      0.830  0.2335E+01  0.7280E+01
      0.864  0.2052E+01  0.7355E+01
      0.898  0.1851E+01  0.7422E+01
      0.932  0.1679E+01  0.7482E+01
      0.967  0.1553E+01  0.7537E+01
      1.001  0.1426E+01  0.7588E+01
      1.035  0.1332E+01  0.7636E+01
      1.069  0.1234E+01  0.7680E+01
      1.104  0.1139E+01  0.7720E+01
      1.138  0.1051E+01  0.7758E+01
      1.172  0.9750E+00  0.7792E+01
      1.207  0.9110E+00  0.7825E+01
      1.241  0.8318E+00  0.7855E+01
      1.275  0.7544E+00  0.7882E+01
      1.309  0.6890E+00  0.7906E+01
      1.344  0.6201E+00  0.7929E+01
      1.378  0.5369E+00  0.7949E+01
      1.412  0.4764E+00  0.7966E+01
      1.446  0.3691E+00  0.7980E+01
      1.481  0.3018E+00  0.7992E+01
      1.515  0.1519E+00  0.7999E+01
      1.549  0.0000E+00  0.8000E+01
      1.583  0.0000E+00  0.8000E+01
      1.618  0.0000E+00  0.8000E+01
      1.652  0.0000E+00  0.8000E+01
      1.686  0.0000E+00  0.8000E+01
      1.721  0.0000E+00  0.8000E+01
      1.755  0.0000E+00  0.8000E+01
      1.789  0.0000E+00  0.8000E+01
      1.823  0.0000E+00  0.8000E+01
      1.858  0.0000E+00  0.8000E+01
      1.892  0.0000E+00  0.8000E+01
      1.926  0.0000E+00  0.8000E+01
      1.960  0.0000E+00  0.8000E+01
      1.995  0.0000E+00  0.8000E+01
      2.029  0.0000E+00  0.8000E+01
      2.063  0.0000E+00  0.8000E+01
      2.097  0.0000E+00  0.8000E+01
      2.132  0.0000E+00  0.8000E+01
      2.166  0.0000E+00  0.8000E+01
      2.200  0.0000E+00  0.8000E+01
      2.235  0.0000E+00  0.8000E+01
      2.269  0.0000E+00  0.8000E+01
      2.303  0.0000E+00  0.8000E+01
      2.337  0.0000E+00  0.8000E+01
      2.372  0.0000E+00  0.8000E+01
      2.406  0.0000E+00  0.8000E+01
      2.440  0.0000E+00  0.8000E+01
      2.474  0.0000E+00  0.8000E+01
      2.509  0.0000E+00  0.8000E+01
      2.543  0.0000E+00  0.8000E+01
      2.577  0.0000E+00  0.8000E+01
      2.611  0.0000E+00  0.8000E+01
      2.646  0.0000E+00  0.8000E+01
      2.680  0.0000E+00  0.8000E+01
      2.714  0.0000E+00  0.8000E+01
      2.749  0.0000E+00  0.8000E+01
      2.783  0.0000E+00  0.8000E+01
      2.817  0.0000E+00  0.8000E+01
      2.851  0.0000E+00  0.8000E+01
      2.886  0.0000E+00  0.8000E+01
      2.920  0.0000E+00  0.8000E+01
      2.954  0.0000E+00  0.8000E+01
      2.988  0.0000E+00  0.8000E+01
      3.023  0.0000E+00  0.8000E+01
      3.057  0.0000E+00  0.8000E+01
      3.091  0.0000E+00  0.8000E+01
      3.125  0.0000E+00  0.8000E+01
      3.160  0.0000E+00  0.8000E+01
      3.194  0.0000E+00  0.8000E+01
      3.228  0.0000E+00  0.8000E+01
      3.263  0.0000E+00  0.8000E+01
      3.297  0.0000E+00  0.8000E+01
      3.331  0.0000E+00  0.8000E+01
      3.365  0.0000E+00  0.8000E+01
      3.400  0.0000E+00  0.8000E+01
      3.434  0.0000E+00  0.8000E+01
      3.468  0.0000E+00  0.8000E+01
      3.502  0.0000E+00  0.8000E+01
      3.537  0.0000E+00  0.8000E+01
      3.571  0.0000E+00  0.8000E+01
      3.605  0.0000E+00  0.8000E+01
      3.639  0.0000E+00  0.8000E+01
      3.674  0.0000E+00  0.8000E+01
      3.708  0.0000E+00  0.8000E+01
      3.742  0.0000E+00  0.8000E+01
      3.777  0.0000E+00  0.8000E+01
      3.811  0.0000E+00  0.8000E+01
      3.845  0.0000E+00  0.8000E+01
      3.879  0.0000E+00  0.8000E+01
      3.914  0.0000E+00  0.8000E+01
      3.948  0.0000E+00  0.8000E+01
      3.982  0.0000E+00  0.8000E+01
      4.016  0.0000E+00  0.8000E+01
      4.051  0.0000E+00  0.8000E+01
      4.085  0.0000E+00  0.8000E+01
      4.119  0.0000E+00  0.8000E+01
      4.153  0.0000E+00  0.8000E+01
      4.188  0.0000E+00  0.8000E+01
      4.222  0.0000E+00  0.8000E+01
      4.256  0.0000E+00  0.8000E+01
      4.291  0.0000E+00  0.8000E+01
      4.325  0.0000E+00  0.8000E+01
      4.359  0.0000E+00  0.8000E+01
      4.393  0.0000E+00  0.8000E+01
      4.428  0.0000E+00  0.8000E+01
      4.462  0.0000E+00  0.8000E+01
      4.496  0.0000E+00  0.8000E+01
      4.530  0.0000E+00  0.8000E+01
      4.565  0.0000E+00  0.8000E+01
      4.599  0.0000E+00  0.8000E+01
      4.633  0.0000E+00  0.8000E+01
      4.667  0.0000E+00  0.8000E+01
      4.702  0.0000E+00  0.8000E+01
      4.736  0.0000E+00  0.8000E+01
      4.770  0.0000E+00  0.8000E+01
      4.805  0.0000E+00  0.8000E+01
      4.839  0.0000E+00  0.8000E+01
      4.873  0.0000E+00  0.8000E+01
      4.907  0.0000E+00  0.8000E+01
      4.942  0.0000E+00  0.8000E+01
      4.976  0.0000E+00  0.8000E+01
      5.010  0.0000E+00  0.8000E+01
      5.044  0.0000E+00  0.8000E+01
      5.079  0.0000E+00  0.8000E+01
      5.113  0.0000E+00  0.8000E+01
      5.147  0.0000E+00  0.8000E+01
      5.181  0.0000E+00  0.8000E+01
      5.216  0.0000E+00  0.8000E+01
      5.250  0.0000E+00  0.8000E+01
      5.284  0.0000E+00  0.8000E+01
      5.319  0.0000E+00  0.8000E+01
      5.353  0.0000E+00  0.8000E+01
      5.387  0.0000E+00  0.8000E+01
      5.421  0.0000E+00  0.8000E+01
      5.456  0.0000E+00  0.8000E+01
      5.490  0.0000E+00  0.8000E+01
      5.524  0.0000E+00  0.8000E+01
      5.558  0.0000E+00  0.8000E+01
      5.593  0.0000E+00  0.8000E+01
      5.627  0.0000E+00  0.8000E+01
      5.661  0.0000E+00  0.8000E+01
      5.695  0.0000E+00  0.8000E+01
      5.730  0.0000E+00  0.8000E+01
      5.764  0.0000E+00  0.8000E+01
      5.798  0.0000E+00  0.8000E+01
      5.833  0.0000E+00  0.8000E+01
      5.867  0.0000E+00  0.8000E+01
      5.901  0.0000E+00  0.8000E+01
      5.935  0.0000E+00  0.8000E+01
      5.970  0.0000E+00  0.8000E+01
      6.004  0.0000E+00  0.8000E+01
      6.038  0.0000E+00  0.8000E+01
      6.072  0.0000E+00  0.8000E+01
      6.107  0.0000E+00  0.8000E+01
      6.141  0.0000E+00  0.8000E+01
      6.175  0.0000E+00  0.8000E+01
      6.209  0.0000E+00  0.8000E+01
      6.244  0.0000E+00  0.8000E+01
      6.278  0.0000E+00  0.8000E+01
      6.312  0.0000E+00  0.8000E+01
      6.347  0.0000E+00  0.8000E+01
      6.381  0.0000E+00  0.8000E+01
      6.415  0.0000E+00  0.8000E+01
      6.449  0.0000E+00  0.8000E+01
      6.484  0.0000E+00  0.8000E+01
      6.518  0.0000E+00  0.8000E+01
      6.552  0.0000E+00  0.8000E+01
      6.586  0.0000E+00  0.8000E+01
      6.621  0.0000E+00  0.8000E+01
      6.655  0.0000E+00  0.8000E+01
      6.689  0.0000E+00  0.8000E+01
      6.723  0.0000E+00  0.8000E+01
      6.758  0.0000E+00  0.8000E+01
      6.792  0.0000E+00  0.8000E+01
      6.826  0.0000E+00  0.8000E+01
      6.861  0.0000E+00  0.8000E+01
      6.895  0.0000E+00  0.8000E+01
      6.929  0.0000E+00  0.8000E+01
      6.963  0.0000E+00  0.8000E+01
      6.998  0.0000E+00  0.8000E+01
      7.032  0.0000E+00  0.8000E+01
      7.066  0.0000E+00  0.8000E+01
      7.100  0.0000E+00  0.8000E+01
      7.135  0.0000E+00  0.8000E+01
      7.169  0.0000E+00  0.8000E+01
      7.203  0.0000E+00  0.8000E+01
      7.237  0.0000E+00  0.8000E+01
      7.272  0.0000E+00  0.8000E+01
      7.306  0.0000E+00  0.8000E+01
      7.340  0.0000E+00  0.8000E+01
      7.375  0.0000E+00  0.8000E+01
      7.409  0.0000E+00  0.8000E+01
      7.443  0.0000E+00  0.8000E+01
      7.477  0.0000E+00  0.8000E+01
      7.512  0.0000E+00  0.8000E+01
      7.546  0.0000E+00  0.8000E+01
      7.580  0.0000E+00  0.8000E+01
      7.614  0.0000E+00  0.8000E+01
      7.649  0.0000E+00  0.8000E+01
      7.683  0.0000E+00  0.8000E+01
      7.717  0.0000E+00  0.8000E+01
      7.751  0.0000E+00  0.8000E+01
      7.786  0.0000E+00  0.8000E+01
      7.820  0.0000E+00  0.8000E+01
      7.854  0.0000E+00  0.8000E+01
      7.888  0.0000E+00  0.8000E+01
      7.923  0.0000E+00  0.8000E+01
      7.957  0.0000E+00  0.8000E+01
      7.991  0.0000E+00  0.8000E+01
      8.026  0.0000E+00  0.8000E+01
      8.060  0.0000E+00  0.8000E+01
      8.094  0.0000E+00  0.8000E+01
      8.128  0.0000E+00  0.8000E+01
      8.163  0.0000E+00  0.8000E+01
      8.197  0.0000E+00  0.8000E+01
      8.231  0.0000E+00  0.8000E+01
      8.265  0.0000E+00  0.8000E+01
      8.300  0.0000E+00  0.8000E+01
      8.334  0.0000E+00  0.8000E+01
      8.368  0.0000E+00  0.8000E+01
      8.402  0.0000E+00  0.8000E+01
      8.437  0.0000E+00  0.8000E+01
      8.471  0.0000E+00  0.8000E+01
      8.505  0.0000E+00  0.8000E+01
      8.540  0.0000E+00  0.8000E+01
      8.574  0.0000E+00  0.8000E+01
      8.608  0.0000E+00  0.8000E+01
      8.642  0.0000E+00  0.8000E+01
      8.677  0.0000E+00  0.8000E+01
      8.711  0.0000E+00  0.8000E+01
      8.745  0.7742E-03  0.8000E+01
      8.779  0.3354E-02  0.8000E+01