    2    2    1    1
  0.9345265E+01  0.2978829E-09  0.2978829E-09  0.2978829E-09  0.2500000E-15
  1.000000000000000E-004
  CAR 
 Mg1O1                                   
      8    455      9
 
  0.0000000E+00  0.0000000E+00  0.0000000E+00  0.6400000E-04
    1      -17.309784   1.000000
    2        1.532700   1.000000
    3        1.532704   1.000000
    4        1.532704   1.000000
    5        8.713468   0.000000
    6       20.079836   0.000000
    7       20.079836   0.000000
    8       20.079836   0.000000
    9       23.974238   0.000000
 
  0.4000000E-01  0.0000000E+00  0.0000000E+00  0.5120000E-03
    1      -17.291793   1.000000
    2        1.414463   1.000000
    3        1.520338   1.000000
    4        1.520342   1.000000
    5        8.827846   0.000000
    6       19.791080   0.000000
    7       20.123051   0.000000
    8       20.123051   0.000000
    9       24.350476   0.000000
 
  0.8000000E-01  0.0000000E+00  0.0000000E+00  0.5120000E-03
    1      -17.238155   1.000000
    2        1.089030   1.000000
    3        1.484281   1.000000
    4        1.484285   1.000000
    5        9.142874   0.000000
    6       19.153991   0.000000
    7       20.247235   0.000000
    8       20.247235   0.000000
    9       25.219549   0.000000
 
  0.1200000E+00  0.0000000E+00  0.0000000E+00  0.5120000E-03
    1      -17.151476   1.000000
    2        0.615149   1.000000
    3        1.426189   1.000000
    4        1.426193   1.000000
    5        9.593267   0.000000
    6       18.450964   0.000000
    7       20.434813   0.000000
    8       20.434813   0.000000
    9       25.026851   0.000000
 
  0.1600000E+00  0.0000000E+00  0.0000000E+00  0.5120000E-03
    1      -17.034234   1.000000
    2        0.056336   1.000000
    3        1.353391   1.000000
    4        1.353395   1.000000
    5       10.109627   0.000000
    6       17.813392   0.000000
    7       20.653031   0.000000
    8       20.653031   0.000000
    9       24.700929   0.000000
 
  0.2000000E+00  0.0000000E+00  0.0000000E+00  0.5120000E-03
    1      -16.892824   1.000000
    2       -0.542142   1.000000
    3        1.269134   1.000000
    4        1.269138   1.000000
    5       10.626894   0.000000
    6       17.299596   0.000000
    7       20.852111   0.000000
    8       20.852111   0.000000
    9       24.524432   0.000000
 
  0.2400000E+00  0.0000000E+00  0.0000000E+00  0.5120000E-03
    1      -16.734674   1.000000
    2       -1.142951   1.000000
    3        1.178606   1.000000
    4        1.178610   1.000000
    5       11.089485   0.000000
    6       16.937948   0.000000
    7       20.977414   0.000000
    8       20.977415   0.000000
    9       24.555433   0.000000
 
  0.2800000E+00  0.0000000E+00  0.0000000E+00  0.5120000E-03
    1      -16.566421   1.000000
    2       -1.715650   1.000000
    3        1.090468   1.000000
    4        1.090471   1.000000
    5       11.459426   0.000000
    6       16.747346   0.000000
    7       21.002901   0.000000
    8       21.002901   0.000000
    9       24.812146   0.000000
 
  0.3200000E+00  0.0000000E+00  0.0000000E+00  0.5120000E-03
    1      -16.400271   1.000000
    2       -2.234903   1.000000
    3        1.005577   1.000000
    4        1.005581   1.000000
    5       11.713076   0.000000
    6       16.716623   0.000000
    7       20.947808   0.000000
    8       20.947809   0.000000
    9       25.250769   0.000000
 
  0.3600000E+00  0.0000000E+00  0.0000000E+00  0.5120000E-03
    1      -16.245572   1.000000
    2       -2.679939   1.000000
    3        0.933410   1.000000
    4        0.933414   1.000000
    5       11.860292   0.000000
    6       16.809348   0.000000
    7       20.855506   0.000000
    8       20.855507   0.000000
    9       25.769612   0.000000
 
  0.4000000E+00  0.0000000E+00  0.0000000E+00  0.5120000E-03
    1      -16.115254   1.000000
    2       -3.035141   1.000000
    3        0.877244   1.000000
    4        0.877248   1.000000
    5       11.930717   0.000000
    6       16.956575   0.000000
    7       20.761617   0.000000
    8       20.761618   0.000000
    9       25.569206   0.000000
 
  0.4400000E+00  0.0000000E+00  0.0000000E+00  0.5120000E-03
    1      -16.020385   1.000000
    2       -3.279900   1.000000
    3        0.836815   1.000000
    4        0.836819   1.000000
    5       11.956854   0.000000
    6       17.106528   0.000000
    7       20.688631   0.000000
    8       20.688632   0.000000
    9       25.432461   0.000000
 
  0.4800000E+00  0.0000000E+00  0.0000000E+00  0.5120000E-03
    1      -15.970680   1.000000
    2       -3.405856   1.000000
    3        0.816119   1.000000
    4        0.816123   1.000000
    5       11.963407   0.000000
    6       17.192063   0.000000
    7       20.649544   0.000000
    8       20.649545   0.000000
    9       25.363199   0.000000
 
  0.4000000E-01  0.4000000E-01  0.0000000E+00  0.3840000E-03
    1      -17.285661   1.000000
    2        1.400491   1.000000
    3        1.504541   1.000000
    4        1.504544   1.000000
    5        8.865753   0.000000
    6       19.691506   0.000000
    7       20.143493   0.000000
    8       20.143493   0.000000
    9       24.470201   0.000000
 
  0.8000000E-01  0.4000000E-01  0.0000000E+00  0.1536000E-02
    1      -17.244304   1.000000
    2        1.154243   1.000000
    3        1.463966   1.000000
    4        1.478109   1.000000
    5        9.113219   0.000000
    6       19.187988   0.000000
    7       20.240710   0.000000
    8       20.245648   0.000000
    9       25.047059   0.000000
 
  0.1200000E+00  0.4000000E-01  0.0000000E+00  0.1536000E-02
    1      -17.168536   1.000000
    2        0.735981   1.000000
    3        1.404386   1.000000
    4        1.435740   1.000000
    5        9.517497   0.000000
    6       18.538599   0.000000
    7       20.404200   0.000000
    8       20.412751   0.000000
    9       24.574996   0.000000
 
  0.1600000E+00  0.4000000E-01  0.0000000E+00  0.1536000E-02
    1      -17.061654   1.000000
    2        0.212733   1.000000
    3        1.329228   1.000000
    4        1.373018   1.000000
    5       10.011130   0.000000
    6       17.905196   0.000000
    7       20.610826   0.000000
    8       20.615661   0.000000
    9       24.175097   0.000000
 
  0.2000000E+00  0.4000000E-01  0.0000000E+00  0.1536000E-02
    1      -16.928622   1.000000
    2       -0.365047   1.000000
    3        1.243943   1.000000
    4        1.294042   1.000000
    5       10.529794   0.000000
    6       17.368304   0.000000
    7       20.810144   0.000000
    8       20.812584   0.000000
    9       23.921720   0.000000
 
  0.2400000E+00  0.4000000E-01  0.0000000E+00  0.1536000E-02
    1      -16.775474   1.000000
    2       -0.956062   1.000000
    3        1.153956   1.000000
    4        1.204979   1.000000
    5       11.016426   0.000000
    6       16.970293   0.000000
    7       20.933703   0.000000
    8       20.956503   0.000000
    9       23.888057   0.000000
 
  0.2800000E+00  0.4000000E-01  0.0000000E+00  0.1536000E-02
    1      -16.611569   1.000000
    2       -1.532320   1.000000
    3        1.064992   1.000000
    4        1.108072   1.000000
    5       11.421691   0.000000
    6       16.732239   0.000000
    7       20.938687   0.000000
    8       21.015641   0.000000
    9       24.108110   0.000000
 
  0.3200000E+00  0.4000000E-01  0.0000000E+00  0.1536000E-02
    1      -16.444057   1.000000
    2       -2.062956   1.000000
    3        0.983461   1.000000
    4        1.016175   1.000000
    5       11.717610   0.000000
    6       16.661777   0.000000
    7       20.849583   0.000000
    8       20.994001   0.000000
    9       24.543077   0.000000
 
  0.3600000E+00  0.4000000E-01  0.0000000E+00  0.1536000E-02
    1      -16.285601   1.000000
    2       -2.528429   1.000000
    3        0.911837   1.000000
    4        0.930322   1.000000
    5       11.901180   0.000000
    6       16.728153   0.000000
    7       20.720736   0.000000
    8       20.921589   0.000000
    9       25.109547   0.000000
 
  0.4000000E+00  0.4000000E-01  0.0000000E+00  0.1536000E-02
    1      -16.147280   1.000000
    2       -2.910537   1.000000
    3        0.857127   1.000000
    4        0.857493   1.000000
    5       11.995099   0.000000
    6       16.872620   0.000000
    7       20.595559   0.000000
    8       20.833570   0.000000
    9       25.702319   0.000000
 
  0.4400000E+00  0.4000000E-01  0.0000000E+00  0.1536000E-02
    1      -16.040350   1.000000
    2       -3.190043   1.000000
    3        0.800984   1.000000
    4        0.820139   1.000000
    5       12.034144   0.000000
    6       17.034182   0.000000
    7       20.498345   0.000000
    8       20.755691   0.000000
    9       25.730123   0.000000
 
  0.4800000E+00  0.4000000E-01  0.0000000E+00  0.1536000E-02
    1      -15.974738   1.000000
    2       -3.354245   1.000000
    3        0.765248   1.000000
    4        0.802623   1.000000
    5       12.046303   0.000000
    6       17.152175   0.000000
    7       20.440877   0.000000
    8       20.704907   0.000000
    9       25.647879   0.000000
 
 -0.4800000E+00  0.4000000E-01  0.0000000E+00  0.1536000E-02
    1      -15.958876   1.000000
    2       -3.396894   1.000000
    3        0.747495   1.000000
    4        0.804318   1.000000
    5       12.048238   0.000000
    6       17.177683   0.000000
    7       20.427286   0.000000
    8       20.690286   0.000000
    9       25.628042   0.000000
 
 -0.4400000E+00  0.4000000E-01  0.0000000E+00  0.1536000E-02
    1      -15.991550   1.000000
    2       -3.312534   1.000000
    3        0.751926   1.000000
    4        0.827866   1.000000
    5       12.044628   0.000000
    6       17.123164   0.000000
    7       20.457311   0.000000
    8       20.716217   0.000000
    9       25.673865   0.000000
 
 -0.4000000E+00  0.4000000E-01  0.0000000E+00  0.1536000E-02
    1      -16.071819   1.000000
    2       -3.108692   1.000000
    3        0.776481   1.000000
    4        0.870122   1.000000
    5       12.026761   0.000000
    6       16.986380   0.000000
    7       20.526216   0.000000
    8       20.781151   0.000000
    9       25.783269   0.000000
 
 -0.3600000E+00  0.4000000E-01  0.0000000E+00  0.1536000E-02
    1      -16.190333   1.000000
    2       -2.792889   1.000000
    3        0.822501   1.000000
    4        0.929597   1.000000
    5       11.972984   0.000000
    6       16.824417   0.000000
    7       20.624055   0.000000
    8       20.877739   0.000000
    9       25.597659   0.000000
 
 -0.3200000E+00  0.4000000E-01  0.0000000E+00  0.1536000E-02
    1      -16.336442   1.000000
    2       -2.381033   1.000000
    3        0.887646   1.000000
    4        1.003758   1.000000
    5       11.853117   0.000000
    6       16.700121   0.000000
    7       20.732891   0.000000
    8       20.988470   0.000000
    9       24.964946   0.000000
 
 -0.2800000E+00  0.4000000E-01  0.0000000E+00  0.1536000E-02
    1      -16.500108   1.000000
    2       -1.892445   1.000000
    3        0.964099   1.000000
    4        1.087647   1.000000
    5       11.632575   0.000000
    6       16.673994   0.000000
    7       20.823482   0.000000
    8       21.079471   0.000000
    9       24.426183   0.000000
 
 -0.2400000E+00  0.4000000E-01  0.0000000E+00  0.1536000E-02
    1      -16.666931   1.000000
    2       -1.343630   1.000000
    3        1.054215   1.000000
    4        1.179432   1.000000
    5       11.298081   0.000000
    6       16.802530   0.000000
    7       20.862152   0.000000
    8       21.098141   0.000000
    9       24.070055   0.000000
 
 -0.2000000E+00  0.4000000E-01  0.0000000E+00  0.1536000E-02
    1      -16.828367   1.000000
    2       -0.760402   1.000000
    3        1.150025   1.000000
    4        1.268668   1.000000
    5       10.860809   0.000000
    6       17.096913   0.000000
    7       20.818948   0.000000
    8       20.998525   0.000000
    9       23.963441   0.000000
 
 -0.1600000E+00  0.4000000E-01  0.0000000E+00  0.1536000E-02
    1      -16.975642   1.000000
    2       -0.171214   1.000000
    3        1.244005   1.000000
    4        1.352224   1.000000
    5       10.355989   0.000000
    6       17.545409   0.000000
    7       20.692567   0.000000
    8       20.795072   0.000000
    9       24.105996   0.000000
 
 -0.1200000E+00  0.4000000E-01  0.0000000E+00  0.1536000E-02
    1      -17.100428   1.000000
    2        0.390533   1.000000
    3        1.333112   1.000000
    4        1.424324   1.000000
    5        9.838627   0.000000
    6       18.122443   0.000000
    7       20.517811   0.000000
    8       20.554676   0.000000
    9       24.434207   0.000000
 
 -0.8000000E-01  0.4000000E-01  0.0000000E+00  0.1536000E-02
    1      -17.197297   1.000000
    2        0.880922   1.000000
    3        1.410806   1.000000
    4        1.478468   1.000000
    5        9.367586   0.000000
    6       18.774274   0.000000
    7       20.340330   0.000000
    8       20.341006   0.000000
    9       24.876611   0.000000
 
 -0.4000000E-01  0.4000000E-01  0.0000000E+00  0.7680000E-03
    1      -17.261986   1.000000
    2        1.241571   1.000000
    3        1.474892   1.000000
    4        1.511387   1.000000
    5        9.008694   0.000000
    6       19.399253   0.000000
    7       20.190294   0.000000
    8       20.200599   0.000000
    9       24.878117   0.000000
 
  0.8000000E-01  0.8000000E-01  0.0000000E+00  0.3840000E-03
    1      -17.215030   1.000000
    2        1.041159   1.000000
    3        1.421629   1.000000
    4        1.421632   1.000000
    5        9.283981   0.000000
    6       18.857024   0.000000
    7       20.328629   0.000000
    8       20.328629   0.000000
    9       24.530995   0.000000
 
  0.1200000E+00  0.8000000E-01  0.0000000E+00  0.1536000E-02
    1      -17.151499   1.000000
    2        0.724661   1.000000
    3        1.359463   1.000000
    4        1.372712   1.000000
    5        9.621095   0.000000
    6       18.332979   0.000000
    7       20.473453   0.000000
    8       20.479642   0.000000
    9       24.000034   0.000000
 
  0.1600000E+00  0.8000000E-01  0.0000000E+00  0.1536000E-02
    1      -17.056147   1.000000
    2        0.272738   1.000000
    3        1.282277   1.000000
    4        1.315834   1.000000
    5       10.069553   0.000000
    6       17.768435   0.000000
    7       20.649461   0.000000
    8       20.671982   0.000000
    9       23.540090   0.000000
 
  0.2000000E+00  0.8000000E-01  0.0000000E+00  0.1536000E-02
    1      -16.933936   1.000000
    2       -0.255054   1.000000
    3        1.195568   1.000000
    4        1.239177   1.000000
    5       10.569869   0.000000
    6       17.256365   0.000000
    7       20.802556   0.000000
    8       20.868967   0.000000
    9       23.234900   0.000000
 
  0.2400000E+00  0.8000000E-01  0.0000000E+00  0.1536000E-02
    1      -16.789661   1.000000
    2       -0.811425   1.000000
    3        1.104558   1.000000
    4        1.146873   1.000000
    5       11.065581   0.000000
    6       16.854605   0.000000
    7       20.847522   0.000000
    8       21.027853   0.000000
    9       23.177584   0.000000
 
  0.2800000E+00  0.8000000E-01  0.0000000E+00  0.1536000E-02
    1      -16.631244   1.000000
    2       -1.364314   1.000000
    3        1.016862   1.000000
    4        1.042793   1.000000
    5       11.503876   0.000000
    6       16.596182   0.000000
    7       20.745110   0.000000
    8       21.115681   0.000000
    9       23.401685   0.000000
 
  0.3200000E+00  0.8000000E-01  0.0000000E+00  0.1536000E-02
    1      -16.466994   1.000000
    2       -1.885376   1.000000
    3        0.935905   1.000000
    4        0.936707   1.000000
    5       11.845803   0.000000
    6       16.500090   0.000000
    7       20.553088   0.000000
    8       21.124825   0.000000
    9       23.836832   0.000000
 
  0.3600000E+00  0.8000000E-01  0.0000000E+00  0.1536000E-02
    1      -16.308165   1.000000
    2       -2.353658   1.000000
    3        0.833232   1.000000
    4        0.865649   1.000000
    5       12.073292   0.000000
    6       16.552278   0.000000
    7       20.343342   0.000000
    8       21.073749   0.000000
    9       24.385682   0.000000
 
  0.4000000E+00  0.8000000E-01  0.0000000E+00  0.1536000E-02
    1      -16.164451   1.000000
    2       -2.747334   1.000000
    3        0.740779   1.000000
    4        0.813444   1.000000
    5       12.200645   0.000000
    6       16.710324   0.000000
    7       20.158121   0.000000
    8       20.994880   0.000000
    9       24.970608   0.000000
 
  0.4400000E+00  0.8000000E-01  0.0000000E+00  0.1536000E-02
    1      -16.049554   1.000000
    2       -3.050058   1.000000
    3        0.661838   1.000000
    4        0.777195   1.000000
    5       12.258935   0.000000
    6       16.895686   0.000000
    7       20.017400   0.000000
    8       20.914046   0.000000
    9       25.511949   0.000000
 
  0.4800000E+00  0.8000000E-01  0.0000000E+00  0.1536000E-02
    1      -15.971907   1.000000
    2       -3.245979   1.000000
    3        0.602303   1.000000
    4        0.762436   1.000000
    5       12.281593   0.000000
    6       17.049538   0.000000
    7       19.929519   0.000000
    8       20.852935   0.000000
    9       25.919059   0.000000
 
 -0.4800000E+00  0.8000000E-01  0.0000000E+00  0.1536000E-02
    1      -15.939587   1.000000
    2       -3.325562   1.000000
    3        0.565336   1.000000
    4        0.768162   1.000000
    5       12.289184   0.000000
    6       17.121272   0.000000
    7       19.896432   0.000000
    8       20.824083   0.000000
    9       26.127068   0.000000
 
 -0.4400000E+00  0.8000000E-01  0.0000000E+00  0.1536000E-02
    1      -15.955693   1.000000
    2       -3.284376   1.000000
    3        0.552277   1.000000
    4        0.794394   1.000000
    5       12.289791   0.000000
    6       17.092492   0.000000
    7       19.917129   0.000000
    8       20.835010   0.000000
    9       26.231355   0.000000
 
 -0.4000000E+00  0.8000000E-01  0.0000000E+00  0.1536000E-02
    1      -16.019330   1.000000
    2       -3.125089   1.000000
    3        0.562266   1.000000
    4        0.838067   1.000000
    5       12.278277   0.000000
    6       16.971892   0.000000
    7       19.988883   0.000000
    8       20.888292   0.000000
    9       26.219916   0.000000
 
 -0.3600000E+00  0.8000000E-01  0.0000000E+00  0.1536000E-02
    1      -16.123272   1.000000
    2       -2.855735   1.000000
    3        0.598774   1.000000
    4        0.898780   1.000000
    5       12.237112   0.000000
    6       16.799250   0.000000
    7       20.105359   0.000000
    8       20.982405   0.000000
    9       25.504659   0.000000
 
 -0.3200000E+00  0.8000000E-01  0.0000000E+00  0.1536000E-02
    1      -16.258246   1.000000
    2       -2.489243   1.000000
    3        0.657031   1.000000
    4        0.974863   1.000000
    5       12.136400   0.000000
    6       16.638148   0.000000
    7       20.253598   0.000000
    8       21.107148   0.000000
    9       24.786154   0.000000
 
 -0.2800000E+00  0.8000000E-01  0.0000000E+00  0.1536000E-02
    1      -16.413504   1.000000
    2       -2.045087   1.000000
    3        0.735418   1.000000
    4        1.061377   1.000000
    5       11.941849   0.000000
    6       16.554939   0.000000
    7       20.412821   0.000000
    8       21.236924   0.000000
    9       24.142266   0.000000
 
 -0.2400000E+00  0.8000000E-01  0.0000000E+00  0.1536000E-02
    1      -16.576880   1.000000
    2       -1.541259   1.000000
    3        0.832946   1.000000
    4        1.152017   1.000000
    5       11.632752   0.000000
    6       16.611918   0.000000
    7       20.552952   0.000000
    8       21.314909   0.000000
    9       23.664875   0.000000
 
 -0.2000000E+00  0.8000000E-01  0.0000000E+00  0.1536000E-02
    1      -16.737958   1.000000
    2       -1.001186   1.000000
    3        0.942759   1.000000
    4        1.243724   1.000000
    5       11.215708   0.000000
    6       16.828952   0.000000
    7       20.640008   0.000000
    8       21.257642   0.000000
    9       23.459918   0.000000
 
 -0.1600000E+00  0.8000000E-01  0.0000000E+00  0.1536000E-02
    1      -16.887337   1.000000
    2       -0.450911   1.000000
    3        1.061025   1.000000
    4        1.327001   1.000000
    5       10.728918   0.000000
    6       17.194679   0.000000
    7       20.650712   0.000000
    8       21.046946   0.000000
    9       23.561203   0.000000
 
 -0.1200000E+00  0.8000000E-01  0.0000000E+00  0.1536000E-02
    1      -17.018104   1.000000
    2        0.072477   1.000000
    3        1.181574   1.000000
    4        1.396869   1.000000
    5       10.219141   0.000000
    6       17.680031   0.000000
    7       20.582763   0.000000
    8       20.772163   0.000000
    9       23.885568   0.000000
 
 -0.8000000E-01  0.8000000E-01  0.0000000E+00  0.7680000E-03
    1      -17.122870   1.000000
    2        0.532408   1.000000
    3        1.301064   1.000000
    4        1.448398   1.000000
    5        9.745570   0.000000
    6       18.234685   0.000000
    7       20.466566   0.000000
    8       20.521455   0.000000
    9       24.343847   0.000000
 
  0.1200000E+00  0.1200000E+00  0.0000000E+00  0.3840000E-03
    1      -17.100700   1.000000
    2        0.541199   1.000000
    3        1.295003   1.000000
    4        1.295006   1.000000
    5        9.885206   0.000000
    6       17.924854   0.000000
    7       20.618667   0.000000
    8       20.618668   0.000000
    9       23.405692   0.000000
 
  0.1600000E+00  0.1200000E+00  0.0000000E+00  0.1536000E-02
    1      -17.018419   1.000000
    2        0.197936   1.000000
    3        1.216162   1.000000
    4        1.224030   1.000000
    5       10.272020   0.000000
    6       17.441430   0.000000
    7       20.789300   0.000000
    8       20.804893   0.000000
    9       22.877231   0.000000
 
  0.2000000E+00  0.1200000E+00  0.0000000E+00  0.1536000E-02
    1      -16.908259   1.000000
    2       -0.245478   1.000000
    3        1.127895   1.000000
    4        1.143570   1.000000
    5       10.732473   0.000000
    6       16.975576   0.000000
    7       20.896832   0.000000
    8       21.003964   0.000000
    9       22.526282   0.000000
 
  0.2400000E+00  0.1200000E+00  0.0000000E+00  0.1536000E-02
    1      -16.774871   1.000000
    2       -0.738157   1.000000
    3        1.036160   1.000000
    4        1.046553   1.000000
    5       11.218064   0.000000
    6       16.590019   0.000000
    7       20.806003   0.000000
    8       21.177410   0.000000
    9       22.498870   0.000000
 
  0.2800000E+00  0.1200000E+00  0.0000000E+00  0.1536000E-02
    1      -16.625285   1.000000
    2       -1.242298   1.000000
    3        0.931147   1.000000
    4        0.947865   1.000000
    5       11.677197   0.000000
    6       16.326060   0.000000
    7       20.529355   0.000000
    8       21.291499   0.000000
    9       22.778397   0.000000
 
  0.3200000E+00  0.1200000E+00  0.0000000E+00  0.1536000E-02
    1      -16.467821   1.000000
    2       -1.730349   1.000000
    3        0.805037   1.000000
    4        0.867857   1.000000
    5       12.061452   0.000000
    6       16.215047   0.000000
    7       20.200763   0.000000
    8       21.329882   0.000000
    9       23.219959   0.000000
 
  0.3600000E+00  0.1200000E+00  0.0000000E+00  0.1536000E-02
    1      -16.311635   1.000000
    2       -2.177938   1.000000
    3        0.678388   1.000000
    4        0.799756   1.000000
    5       12.337594   0.000000
    6       16.263686   0.000000
    7       19.893686   0.000000
    8       21.302757   0.000000
    9       23.730598   0.000000
 
  0.4000000E+00  0.1200000E+00  0.0000000E+00  0.1536000E-02
    1      -16.168037   1.000000
    2       -2.566282   1.000000
    3        0.556857   1.000000
    4        0.747535   1.000000
    5       12.505847   0.000000
    6       16.436249   0.000000
    7       19.636634   0.000000
    8       21.235260   0.000000
    9       24.256063   0.000000
 
  0.4400000E+00  0.1200000E+00  0.0000000E+00  0.1536000E-02
    1      -16.047249   1.000000
    2       -2.875072   1.000000
    3        0.450956   1.000000
    4        0.714002   1.000000
    5       12.591938   0.000000
    6       16.667114   0.000000
    7       19.442382   0.000000
    8       21.155153   0.000000
    9       24.755532   0.000000
 
  0.4800000E+00  0.1200000E+00  0.0000000E+00  0.1536000E-02
    1      -15.960196   1.000000
    2       -3.089275   1.000000
    3        0.362573   1.000000
    4        0.700730   1.000000
    5       12.632027   0.000000
    6       16.878044   0.000000
    7       19.314506   0.000000
    8       21.084753   0.000000
    9       25.205918   0.000000
 
 -0.4800000E+00  0.1200000E+00  0.0000000E+00  0.1536000E-02
    1      -15.914634   1.000000
    2       -3.198105   1.000000
    3        0.299111   1.000000
    4        0.708358   1.000000
    5       12.651165   0.000000
    6       17.005557   0.000000
    7       19.253395   0.000000
    8       21.041150   0.000000
    9       25.594549   0.000000
 
 -0.4400000E+00  0.1200000E+00  0.0000000E+00  0.1536000E-02
    1      -15.914504   1.000000
    2       -3.194749   1.000000
    3        0.263199   1.000000
    4        0.736360   1.000000
    5       12.661123   0.000000
    6       17.023230   0.000000
    7       19.258521   0.000000
    8       21.034746   0.000000
    9       25.913357   0.000000
 
 -0.4000000E+00  0.1200000E+00  0.0000000E+00  0.1536000E-02
    1      -15.960173   1.000000
    2       -3.080012   1.000000
    3        0.256854   1.000000
    4        0.784036   1.000000
    5       12.658482   0.000000
    6       16.928018   0.000000
    7       19.328341   0.000000
    8       21.072207   0.000000
    9       26.143130   0.000000
 
 -0.3600000E+00  0.1200000E+00  0.0000000E+00  0.1536000E-02
    1      -16.047587   1.000000
    2       -2.861000   1.000000
    3        0.280983   1.000000
    4        0.847430   1.000000
    5       12.628870   0.000000
    6       16.750821   0.000000
    7       19.460551   0.000000
    8       21.156388   0.000000
    9       25.535005   0.000000
 
 -0.3200000E+00  0.1200000E+00  0.0000000E+00  0.1536000E-02
    1      -16.169019   1.000000
    2       -2.550288   1.000000
    3        0.334792   1.000000
    4        0.923489   1.000000
    5       12.542444   0.000000
    6       16.553544   0.000000
    7       19.646392   0.000000
    8       21.285099   0.000000
    9       24.737129   0.000000
 
 -0.2800000E+00  0.1200000E+00  0.0000000E+00  0.1536000E-02
    1      -16.312591   1.000000
    2       -2.163589   1.000000
    3        0.420839   1.000000
    4        1.010606   1.000000
    5       12.364025   0.000000
    6       16.420509   0.000000
    7       19.869686   0.000000
    8       21.447587   0.000000
    9       23.991093   0.000000
 
 -0.2400000E+00  0.1200000E+00  0.0000000E+00  0.1536000E-02
    1      -16.468428   1.000000
    2       -1.723645   1.000000
    3        0.534691   1.000000
    4        1.102989   1.000000
    5       12.069244   0.000000
    6       16.410583   0.000000
    7       20.106672   0.000000
    8       21.602519   0.000000
    9       23.372058   0.000000
 
 -0.2000000E+00  0.1200000E+00  0.0000000E+00  0.1536000E-02
    1      -16.625116   1.000000
    2       -1.251070   1.000000
    3        0.674431   1.000000
    4        1.195085   1.000000
    5       11.663902   0.000000
    6       16.553317   0.000000
    7       20.327945   0.000000
    8       21.628134   0.000000
    9       23.023701   0.000000
 
 -0.1600000E+00  0.1200000E+00  0.0000000E+00  0.1536000E-02
    1      -16.774587   1.000000
    2       -0.775320   1.000000
    3        0.834229   1.000000
    4        1.277189   1.000000
    5       11.185761   0.000000
    6       16.835885   0.000000
    7       20.495726   0.000000
    8       21.405662   0.000000
    9       23.081347   0.000000
 
 -0.1200000E+00  0.1200000E+00  0.0000000E+00  0.7680000E-03
    1      -16.907536   1.000000
    2       -0.322860   1.000000
    3        1.007295   1.000000
    4        1.347075   1.000000
    5       10.685734   0.000000
    6       17.227570   0.000000
    7       20.582916   0.000000
    8       21.072684   0.000000
    9       23.415641   0.000000
 
  0.1600000E+00  0.1600000E+00  0.0000000E+00  0.3840000E-03
    1      -16.949493   1.000000
    2       -0.023848   1.000000
    3        1.135502   1.000000
    4        1.135505   1.000000
    5       10.591649   0.000000
    6       17.020725   0.000000
    7       20.989520   0.000000
    8       20.989520   0.000000
    9       22.253936   0.000000
 
  0.2000000E+00  0.1600000E+00  0.0000000E+00  0.1536000E-02
    1      -16.852689   1.000000
    2       -0.361550   1.000000
    3        1.046056   1.000000
    4        1.046446   1.000000
    5       10.996404   0.000000
    6       16.593530   0.000000
    7       21.092423   0.000000
    8       21.194716   0.000000
    9       21.835300   0.000000
 
  0.2400000E+00  0.1600000E+00  0.0000000E+00  0.1536000E-02
    1      -16.732845   1.000000
    2       -0.768502   1.000000
    3        0.941435   1.000000
    4        0.953206   1.000000
    5       11.448227   0.000000
    6       16.221964   0.000000
    7       20.770106   0.000000
    8       21.383986   0.000000
    9       21.950491   0.000000
 
  0.2800000E+00  0.1600000E+00  0.0000000E+00  0.1536000E-02
    1      -16.593995   1.000000
    2       -1.199481   1.000000
    3        0.815228   1.000000
    4        0.865518   1.000000
    5       11.909421   0.000000
    6       15.953846   0.000000