       N       E                     dE             d eps       ncg     rms          rms(c)
DAV:   1     0.218884224711E+03    0.21888E+03   -0.15864E+04 12105   0.969E+02
DAV:   2     0.118917918287E+02   -0.20699E+03   -0.20518E+03 13050   0.361E+02
DAV:   3     0.969145638869E+01   -0.22003E+01   -0.22003E+01  9990   0.363E+01
DAV:   4     0.968448861300E+01   -0.69678E-02   -0.69677E-02 10782   0.195E+00
DAV:   5    -0.164576960423E+02   -0.26142E+02   -0.85237E+00  8235   0.164E+01    0.653E+00
DAV:   6    -0.147808226913E+02    0.16769E+01   -0.39682E+00  8190   0.133E+01    0.218E+00
DAV:   7    -0.148294234700E+02   -0.48601E-01   -0.12451E+00  8424   0.708E+00    0.185E+00
DAV:   8    -0.148258731890E+02    0.35503E-02   -0.11298E-02  8793   0.112E+00    0.111E+00
DAV:   9    -0.148161324163E+02    0.97408E-02   -0.27060E-02  8361   0.143E+00    0.493E-01
DAV:  10    -0.148152792795E+02    0.85314E-03   -0.24998E-03  8910   0.507E-01    0.267E-01
DAV:  11    -0.148146592513E+02    0.62003E-03   -0.41629E-04  8361   0.182E-01    0.166E-01
DAV:  12    -0.148144994308E+02    0.15982E-03   -0.25960E-04  9090   0.128E-01    0.107E-01
DAV:  13    -0.148144600607E+02    0.39370E-04   -0.43823E-05  8595   0.760E-02    0.658E-02
DAV:  14    -0.148144486459E+02    0.11415E-04   -0.15263E-05  8523   0.521E-02    0.390E-02
DAV:  15    -0.148144464723E+02    0.21736E-05   -0.57776E-06  8478   0.315E-02    0.234E-02
DAV:  16    -0.148144463851E+02    0.87235E-07   -0.22552E-06  8433   0.185E-02
   1 F= -.14814446E+02 E0= -.14814446E+02  d E =0.000000E+00
