 vasp.5.4.1 24Jun15 (build Dec 08 2018 00:28:02) complex                        
  
 executed on          pkvasp5.4.1 date 2023.10.04  15:54:15
 running on   24 total cores
 distrk:  each k-point on   12 cores,    2 groups
 distr:  one band on NCORES_PER_BAND=   4 cores,    3 groups


--------------------------------------------------------------------------------------------------------


 INCAR:
 POTCAR:    PAW_PBE Mg 13Apr2007                  
 POTCAR:    PAW_PBE O 08Apr2002                   

 ----------------------------------------------------------------------------- 
|                                                                             |
|           W    W    AA    RRRRR   N    N  II  N    N   GGGG   !!!           |
|           W    W   A  A   R    R  NN   N  II  NN   N  G    G  !!!           |
|           W    W  A    A  R    R  N N  N  II  N N  N  G       !!!           |
|           W WW W  AAAAAA  RRRRR   N  N N  II  N  N N  G  GGG   !            |
|           WW  WW  A    A  R   R   N   NN  II  N   NN  G    G                |
|           W    W  A    A  R    R  N    N  II  N    N   GGGG   !!!           |
|                                                                             |
|      You have enabled k-point parallelism (KPAR>1).                         |
|      This developmental code was originally  written by Paul Kent at ORNL,  |
|      and carefully double checked in Vienna.                                |
|      GW as well as linear response parallelism added by Martijn Marsman     |
|      and Georg Kresse.                                                      |
|      Carefully verify results versus KPAR=1.                                |
|      Report problems to Paul Kent and Vienna.                               |
|                                                                             |
 ----------------------------------------------------------------------------- 

 POTCAR:    PAW_PBE Mg 13Apr2007                  
  local pseudopotential read in
  partial core-charges read in
  partial kinetic energy density read in
  atomic valenz-charges read in
  non local Contribution for L=           0  read in
    real space projection operators read in
  non local Contribution for L=           0  read in
    real space projection operators read in
  non local Contribution for L=           1  read in
    real space projection operators read in
  non local Contribution for L=           1  read in
    real space projection operators read in
  non local Contribution for L=           2  read in
    real space projection operators read in
    PAW grid and wavefunctions read in
 
   number of l-projection  operators is LMAX  =           5
   number of lm-projection operators is LMMAX =          13
 
 POTCAR:    PAW_PBE O 08Apr2002                   
  local pseudopotential read in
  partial core-charges read in
  partial kinetic energy density read in
  kinetic energy density of atom read in
  atomic valenz-charges read in
  non local Contribution for L=           0  read in
    real space projection operators read in
  non local Contribution for L=           0  read in
    real space projection operators read in
  non local Contribution for L=           1  read in
    real space projection operators read in
  non local Contribution for L=           1  read in
    real space projection operators read in
    PAW grid and wavefunctions read in
 
   number of l-projection  operators is LMAX  =           4
   number of lm-projection operators is LMMAX =           8
 
  PAW_PBE Mg 13Apr2007                  :
 energy of atom  1       EATOM=  -23.0369
 kinetic energy error for atom=    0.0001 (will be added to EATOM!!)
  PAW_PBE O 08Apr2002                   :
 energy of atom  2       EATOM= -432.3788
 kinetic energy error for atom=    0.1156 (will be added to EATOM!!)
 
 
 POSCAR: xyz: Mg1O1                              
  positions in direct lattice
  No initial velocities read in
 exchange correlation table for  LEXCH =        8
   RHO(1)=    0.500       N(1)  =     2000
   RHO(2)=  100.500       N(2)  =     4000
 


--------------------------------------------------------------------------------------------------------


 ion  position               nearest neighbor table
   1  0.000  0.000  0.000-   2 2.11   2 2.11   2 2.11   2 2.11   2 2.11   2 2.11
   2  0.500  0.500  0.500-   1 2.11   1 2.11   1 2.11   1 2.11   1 2.11   1 2.11
 
  LATTYP: Found a face centered cubic cell.
 ALAT       =     4.2127000000
  
  Lattice vectors:
  
 A1 = (   2.1063500000,   2.1063500000,   0.0000000000)
 A2 = (   0.0000000000,   2.1063500000,   2.1063500000)
 A3 = (   2.1063500000,   0.0000000000,   2.1063500000)


Analysis of symmetry for initial positions (statically):
=====================================================================
 Subroutine PRICEL returns:
 Original cell was already a primitive cell.
 

 Routine SETGRP: Setting up the symmetry group for a 
 face centered cubic supercell.


 Subroutine GETGRP returns: Found 48 space group operations
 (whereof 48 operations were pure point group operations)
 out of a pool of 48 trial point group operations.


The static configuration has the point symmetry O_h .


Analysis of symmetry for dynamics (positions and initial velocities):
=====================================================================
 Subroutine PRICEL returns:
 Original cell was already a primitive cell.
 

 Routine SETGRP: Setting up the symmetry group for a 
 face centered cubic supercell.


 Subroutine GETGRP returns: Found 48 space group operations
 (whereof 48 operations were pure point group operations)
 out of a pool of 48 trial point group operations.


The dynamic configuration has the point symmetry O_h .


 Subroutine INISYM returns: Found 48 space group operations
 (whereof 48 operations are pure point group operations),
 and found     1 'primitive' translations

 
 
 KPOINTS: Automatic mesh                          

Automatic generation of k-mesh.
Space group operators:
 irot       det(A)        alpha          n_x          n_y          n_z        tau_x        tau_y        tau_z
    1     1.000000     0.000001     1.000000     0.000000     0.000000     0.000000     0.000000     0.000000
    2    -1.000000     0.000001     1.000000     0.000000     0.000000     0.000000     0.000000     0.000000
    3     1.000000   120.000000    -0.577350    -0.577350    -0.577350     0.000000     0.000000     0.000000
    4    -1.000000   120.000000    -0.577350    -0.577350    -0.577350     0.000000     0.000000     0.000000
    5     1.000000   120.000000     0.577350     0.577350     0.577350     0.000000     0.000000     0.000000
    6    -1.000000   120.000000     0.577350     0.577350     0.577350     0.000000     0.000000     0.000000
    7     1.000000    90.000000     0.000000    -1.000000     0.000000     0.000000     0.000000     0.000000
    8    -1.000000    90.000000     0.000000    -1.000000     0.000000     0.000000     0.000000     0.000000
    9     1.000000   180.000000     0.707107     0.707107     0.000000     0.000000     0.000000     0.000000
   10    -1.000000   180.000000     0.707107     0.707107     0.000000     0.000000     0.000000     0.000000
   11     1.000000    90.000000     1.000000     0.000000     0.000000     0.000000     0.000000     0.000000
   12    -1.000000    90.000000     1.000000     0.000000     0.000000     0.000000     0.000000     0.000000
   13     1.000000   180.000000     0.000000     1.000000     0.000000     0.000000     0.000000     0.000000
   14    -1.000000   180.000000     0.000000     1.000000     0.000000     0.000000     0.000000     0.000000
   15     1.000000   120.000000     0.577350     0.577350    -0.577350     0.000000     0.000000     0.000000
   16    -1.000000   120.000000     0.577350     0.577350    -0.577350     0.000000     0.000000     0.000000
   17     1.000000   120.000000     0.577350    -0.577350    -0.577350     0.000000     0.000000     0.000000
   18    -1.000000   120.000000     0.577350    -0.577350    -0.577350     0.000000     0.000000     0.000000
   19     1.000000    90.000000     0.000000     1.000000     0.000000     0.000000     0.000000     0.000000
   20    -1.000000    90.000000     0.000000     1.000000     0.000000     0.000000     0.000000     0.000000
   21     1.000000    90.000000     0.000000     0.000000    -1.000000     0.000000     0.000000     0.000000
   22    -1.000000    90.000000     0.000000     0.000000    -1.000000     0.000000     0.000000     0.000000
   23     1.000000   180.000000     0.000000     0.707107     0.707107     0.000000     0.000000     0.000000
   24    -1.000000   180.000000     0.000000     0.707107     0.707107     0.000000     0.000000     0.000000
   25     1.000000   120.000000    -0.577350     0.577350     0.577350     0.000000     0.000000     0.000000
   26    -1.000000   120.000000    -0.577350     0.577350     0.577350     0.000000     0.000000     0.000000
   27     1.000000   120.000000    -0.577350     0.577350    -0.577350     0.000000     0.000000     0.000000
   28    -1.000000   120.000000    -0.577350     0.577350    -0.577350     0.000000     0.000000     0.000000
   29     1.000000   180.000000     0.000000     0.000000     1.000000     0.000000     0.000000     0.000000
   30    -1.000000   180.000000     0.000000     0.000000     1.000000     0.000000     0.000000     0.000000
   31     1.000000    90.000000    -1.000000     0.000000     0.000000     0.000000     0.000000     0.000000
   32    -1.000000    90.000000    -1.000000     0.000000     0.000000     0.000000     0.000000     0.000000
   33     1.000000   180.000000     0.707107     0.000000     0.707107     0.000000     0.000000     0.000000
   34    -1.000000   180.000000     0.707107     0.000000     0.707107     0.000000     0.000000     0.000000
   35     1.000000    90.000000     0.000000     0.000000     1.000000     0.000000     0.000000     0.000000
   36    -1.000000    90.000000     0.000000     0.000000     1.000000     0.000000     0.000000     0.000000
   37     1.000000   120.000000    -0.577350    -0.577350     0.577350     0.000000     0.000000     0.000000
   38    -1.000000   120.000000    -0.577350    -0.577350     0.577350     0.000000     0.000000     0.000000
   39     1.000000   180.000000     1.000000     0.000000     0.000000     0.000000     0.000000     0.000000
   40    -1.000000   180.000000     1.000000     0.000000     0.000000     0.000000     0.000000     0.000000
   41     1.000000   120.000000     0.577350    -0.577350     0.577350     0.000000     0.000000     0.000000
   42    -1.000000   120.000000     0.577350    -0.577350     0.577350     0.000000     0.000000     0.000000
   43     1.000000   180.000000     0.707107    -0.707107     0.000000     0.000000     0.000000     0.000000
   44    -1.000000   180.000000     0.707107    -0.707107     0.000000     0.000000     0.000000     0.000000
   45     1.000000   180.000000     0.707107     0.000000    -0.707107     0.000000     0.000000     0.000000
   46    -1.000000   180.000000     0.707107     0.000000    -0.707107     0.000000     0.000000     0.000000
   47     1.000000   180.000000     0.000000    -0.707107     0.707107     0.000000     0.000000     0.000000
   48    -1.000000   180.000000     0.000000    -0.707107     0.707107     0.000000     0.000000     0.000000
 
 Subroutine IBZKPT returns following result:
 ===========================================
 
 Found    455 irreducible k-points:
 
 Following reciprocal coordinates:
            Coordinates               Weight
  0.000000  0.000000  0.000000      1.000000
  0.040000  0.000000  0.000000      8.000000
  0.080000  0.000000  0.000000      8.000000
  0.120000  0.000000  0.000000      8.000000
  0.160000  0.000000  0.000000      8.000000
  0.200000  0.000000  0.000000      8.000000
  0.240000  0.000000  0.000000      8.000000
  0.280000  0.000000  0.000000      8.000000
  0.320000  0.000000  0.000000      8.000000
  0.360000  0.000000  0.000000      8.000000
  0.400000  0.000000  0.000000      8.000000
  0.440000  0.000000  0.000000      8.000000
  0.480000  0.000000  0.000000      8.000000
  0.040000  0.040000  0.000000      6.000000
  0.080000  0.040000  0.000000     24.000000
  0.120000  0.040000  0.000000     24.000000
  0.160000  0.040000  0.000000     24.000000
  0.200000  0.040000  0.000000     24.000000
  0.240000  0.040000  0.000000     24.000000
  0.280000  0.040000  0.000000     24.000000
  0.320000  0.040000  0.000000     24.000000
  0.360000  0.040000  0.000000     24.000000
  0.400000  0.040000  0.000000     24.000000
  0.440000  0.040000  0.000000     24.000000
  0.480000  0.040000  0.000000     24.000000
 -0.480000  0.040000  0.000000     24.000000
 -0.440000  0.040000  0.000000     24.000000
 -0.400000  0.040000  0.000000     24.000000
 -0.360000  0.040000  0.000000     24.000000
 -0.320000  0.040000  0.000000     24.000000
 -0.280000  0.040000  0.000000     24.000000
 -0.240000  0.040000  0.000000     24.000000
 -0.200000  0.040000  0.000000     24.000000
 -0.160000  0.040000  0.000000     24.000000
 -0.120000  0.040000  0.000000     24.000000
 -0.080000  0.040000  0.000000     24.000000
 -0.040000  0.040000  0.000000     12.000000
  0.080000  0.080000  0.000000      6.000000
  0.120000  0.080000  0.000000     24.000000
  0.160000  0.080000  0.000000     24.000000
  0.200000  0.080000  0.000000     24.000000
  0.240000  0.080000  0.000000     24.000000
  0.280000  0.080000  0.000000     24.000000
  0.320000  0.080000  0.000000     24.000000
  0.360000  0.080000  0.000000     24.000000
  0.400000  0.080000  0.000000     24.000000
  0.440000  0.080000  0.000000     24.000000
  0.480000  0.080000  0.000000     24.000000
 -0.480000  0.080000  0.000000     24.000000
 -0.440000  0.080000  0.000000     24.000000
 -0.400000  0.080000  0.000000     24.000000
 -0.360000  0.080000  0.000000     24.000000
 -0.320000  0.080000  0.000000     24.000000
 -0.280000  0.080000  0.000000     24.000000
 -0.240000  0.080000  0.000000     24.000000
 -0.200000  0.080000  0.000000     24.000000
 -0.160000  0.080000  0.000000     24.000000
 -0.120000  0.080000  0.000000     24.000000
 -0.080000  0.080000  0.000000     12.000000
  0.120000  0.120000  0.000000      6.000000
  0.160000  0.120000  0.000000     24.000000
  0.200000  0.120000  0.000000     24.000000
  0.240000  0.120000  0.000000     24.000000
  0.280000  0.120000  0.000000     24.000000
  0.320000  0.120000  0.000000     24.000000
  0.360000  0.120000  0.000000     24.000000
  0.400000  0.120000  0.000000     24.000000
  0.440000  0.120000  0.000000     24.000000
  0.480000  0.120000  0.000000     24.000000
 -0.480000  0.120000  0.000000     24.000000
 -0.440000  0.120000  0.000000     24.000000
 -0.400000  0.120000  0.000000     24.000000
 -0.360000  0.120000  0.000000     24.000000
 -0.320000  0.120000  0.000000     24.000000
 -0.280000  0.120000  0.000000     24.000000
 -0.240000  0.120000  0.000000     24.000000
 -0.200000  0.120000  0.000000     24.000000
 -0.160000  0.120000  0.000000     24.000000
 -0.120000  0.120000  0.000000     12.000000
  0.160000  0.160000  0.000000      6.000000
  0.200000  0.160000  0.000000     24.000000
  0.240000  0.160000  0.000000     24.000000
  0.280000  0.160000  0.000000     24.000000
  0.320000  0.160000  0.000000     24.000000
  0.360000  0.160000  0.000000     24.000000
  0.400000  0.160000  0.000000     24.000000
  0.440000  0.160000  0.000000     24.000000
  0.480000  0.160000  0.000000     24.000000
 -0.480000  0.160000  0.000000     24.000000
 -0.440000  0.160000  0.000000     24.000000
 -0.400000  0.160000  0.000000     24.000000
 -0.360000  0.160000  0.000000     24.000000
 -0.320000  0.160000  0.000000     24.000000
 -0.280000  0.160000  0.000000     24.000000
 -0.240000  0.160000  0.000000     24.000000
 -0.200000  0.160000  0.000000     24.000000
 -0.160000  0.160000  0.000000     12.000000
  0.200000  0.200000  0.000000      6.000000
  0.240000  0.200000  0.000000     24.000000
  0.280000  0.200000  0.000000     24.000000
  0.320000  0.200000  0.000000     24.000000
  0.360000  0.200000  0.000000     24.000000
  0.400000  0.200000  0.000000     24.000000
  0.440000  0.200000  0.000000     24.000000
  0.480000  0.200000  0.000000     24.000000
 -0.480000  0.200000  0.000000     24.000000
 -0.440000  0.200000  0.000000     24.000000
 -0.400000  0.200000  0.000000     24.000000
 -0.360000  0.200000  0.000000     24.000000
 -0.320000  0.200000  0.000000     24.000000
 -0.280000  0.200000  0.000000     24.000000
 -0.240000  0.200000  0.000000     24.000000
 -0.200000  0.200000  0.000000     12.000000
  0.240000  0.240000  0.000000      6.000000
  0.280000  0.240000  0.000000     24.000000
  0.320000  0.240000  0.000000     24.000000
  0.360000  0.240000  0.000000     24.000000
  0.400000  0.240000  0.000000     24.000000
  0.440000  0.240000  0.000000     24.000000
  0.480000  0.240000  0.000000     24.000000
 -0.480000  0.240000  0.000000     24.000000
 -0.440000  0.240000  0.000000     24.000000
 -0.400000  0.240000  0.000000     24.000000
 -0.360000  0.240000  0.000000     24.000000
 -0.320000  0.240000  0.000000     24.000000
 -0.280000  0.240000  0.000000     24.000000
 -0.240000  0.240000  0.000000     12.000000
  0.280000  0.280000  0.000000      6.000000
  0.320000  0.280000  0.000000     24.000000
  0.360000  0.280000  0.000000     24.000000
  0.400000  0.280000  0.000000     24.000000
  0.440000  0.280000  0.000000     24.000000
  0.480000  0.280000  0.000000     24.000000
 -0.480000  0.280000  0.000000     24.000000
 -0.440000  0.280000  0.000000     24.000000
 -0.400000  0.280000  0.000000     24.000000
 -0.360000  0.280000  0.000000     24.000000
 -0.320000  0.280000  0.000000     24.000000
 -0.280000  0.280000  0.000000     12.000000
  0.320000  0.320000  0.000000      6.000000
  0.360000  0.320000  0.000000     24.000000
  0.400000  0.320000  0.000000     24.000000
  0.440000  0.320000  0.000000     24.000000
  0.480000  0.320000  0.000000     24.000000
 -0.480000  0.320000  0.000000     24.000000
 -0.440000  0.320000  0.000000     24.000000
 -0.400000  0.320000  0.000000     24.000000
 -0.360000  0.320000  0.000000     24.000000
 -0.320000  0.320000  0.000000     12.000000
  0.360000  0.360000  0.000000      6.000000
  0.400000  0.360000  0.000000     24.000000
  0.440000  0.360000  0.000000     24.000000
  0.480000  0.360000  0.000000     24.000000
 -0.480000  0.360000  0.000000     24.000000
 -0.440000  0.360000  0.000000     24.000000
 -0.400000  0.360000  0.000000     24.000000
 -0.360000  0.360000  0.000000     12.000000
  0.400000  0.400000  0.000000      6.000000
  0.440000  0.400000  0.000000     24.000000
  0.480000  0.400000  0.000000     24.000000
 -0.480000  0.400000  0.000000     24.000000
 -0.440000  0.400000  0.000000     24.000000
 -0.400000  0.400000  0.000000     12.000000
  0.440000  0.440000  0.000000      6.000000
  0.480000  0.440000  0.000000     24.000000
 -0.480000  0.440000  0.000000     24.000000
 -0.440000  0.440000  0.000000     12.000000
  0.480000  0.480000  0.000000      6.000000
 -0.480000  0.480000  0.000000     12.000000
  0.120000  0.080000  0.040000     24.000000
  0.160000  0.080000  0.040000     48.000000
  0.200000  0.080000  0.040000     48.000000
  0.240000  0.080000  0.040000     48.000000
  0.280000  0.080000  0.040000     48.000000
  0.320000  0.080000  0.040000     48.000000
  0.360000  0.080000  0.040000     48.000000
  0.400000  0.080000  0.040000     48.000000
  0.440000  0.080000  0.040000     48.000000
  0.480000  0.080000  0.040000     48.000000
 -0.480000  0.080000  0.040000     48.000000
  0.160000  0.120000  0.040000     24.000000
  0.200000  0.120000  0.040000     48.000000
  0.240000  0.120000  0.040000     48.000000
  0.280000  0.120000  0.040000     48.000000
  0.320000  0.120000  0.040000     48.000000
  0.360000  0.120000  0.040000     48.000000
  0.400000  0.120000  0.040000     48.000000
  0.440000  0.120000  0.040000     48.000000
  0.480000  0.120000  0.040000     48.000000
 -0.480000  0.120000  0.040000     48.000000
 -0.440000  0.120000  0.040000     48.000000
 -0.400000  0.120000  0.040000     48.000000
 -0.360000  0.120000  0.040000     48.000000
 -0.320000  0.120000  0.040000     48.000000
 -0.280000  0.120000  0.040000     48.000000
 -0.240000  0.120000  0.040000     48.000000
 -0.200000  0.120000  0.040000     48.000000
 -0.160000  0.120000  0.040000     48.000000
 -0.120000  0.120000  0.040000     48.000000
 -0.080000  0.120000  0.040000     24.000000
  0.200000  0.160000  0.040000     24.000000
  0.240000  0.160000  0.040000     48.000000
  0.280000  0.160000  0.040000     48.000000
  0.320000  0.160000  0.040000     48.000000
  0.360000  0.160000  0.040000     48.000000
  0.400000  0.160000  0.040000     48.000000
  0.440000  0.160000  0.040000     48.000000
  0.480000  0.160000  0.040000     48.000000
 -0.480000  0.160000  0.040000     48.000000
 -0.440000  0.160000  0.040000     48.000000
 -0.400000  0.160000  0.040000     48.000000
 -0.360000  0.160000  0.040000     48.000000
 -0.320000  0.160000  0.040000     48.000000
 -0.280000  0.160000  0.040000     48.000000
 -0.240000  0.160000  0.040000     48.000000
 -0.200000  0.160000  0.040000     48.000000
 -0.160000  0.160000  0.040000     48.000000
 -0.120000  0.160000  0.040000     24.000000
  0.240000  0.200000  0.040000     24.000000
  0.280000  0.200000  0.040000     48.000000
  0.320000  0.200000  0.040000     48.000000
  0.360000  0.200000  0.040000     48.000000
  0.400000  0.200000  0.040000     48.000000
  0.440000  0.200000  0.040000     48.000000
  0.480000  0.200000  0.040000     48.000000
 -0.480000  0.200000  0.040000     48.000000
 -0.440000  0.200000  0.040000     48.000000
 -0.400000  0.200000  0.040000     48.000000
 -0.360000  0.200000  0.040000     48.000000
 -0.320000  0.200000  0.040000     48.000000
 -0.280000  0.200000  0.040000     48.000000
 -0.240000  0.200000  0.040000     48.000000
 -0.200000  0.200000  0.040000     48.000000
 -0.160000  0.200000  0.040000     24.000000
  0.280000  0.240000  0.040000     24.000000
  0.320000  0.240000  0.040000     48.000000
  0.360000  0.240000  0.040000     48.000000
  0.400000  0.240000  0.040000     48.000000
  0.440000  0.240000  0.040000     48.000000
  0.480000  0.240000  0.040000     48.000000
 -0.480000  0.240000  0.040000     48.000000
 -0.440000  0.240000  0.040000     48.000000
 -0.400000  0.240000  0.040000     48.000000
 -0.360000  0.240000  0.040000     48.000000
 -0.320000  0.240000  0.040000     48.000000
 -0.280000  0.240000  0.040000     48.000000
 -0.240000  0.240000  0.040000     48.000000
 -0.200000  0.240000  0.040000     24.000000
  0.320000  0.280000  0.040000     24.000000
  0.360000  0.280000  0.040000     48.000000
  0.400000  0.280000  0.040000     48.000000
  0.440000  0.280000  0.040000     48.000000
  0.480000  0.280000  0.040000     48.000000
 -0.480000  0.280000  0.040000     48.000000
 -0.440000  0.280000  0.040000     48.000000
 -0.400000  0.280000  0.040000     48.000000
 -0.360000  0.280000  0.040000     48.000000
 -0.320000  0.280000  0.040000     48.000000
 -0.280000  0.280000  0.040000     48.000000
 -0.240000  0.280000  0.040000     24.000000
  0.360000  0.320000  0.040000     24.000000
  0.400000  0.320000  0.040000     48.000000
  0.440000  0.320000  0.040000     48.000000
  0.480000  0.320000  0.040000     48.000000
 -0.480000  0.320000  0.040000     48.000000
 -0.440000  0.320000  0.040000     48.000000
 -0.400000  0.320000  0.040000     48.000000
 -0.360000  0.320000  0.040000     48.000000
 -0.320000  0.320000  0.040000     48.000000
 -0.280000  0.320000  0.040000     24.000000
  0.400000  0.360000  0.040000     24.000000
  0.440000  0.360000  0.040000     48.000000
  0.480000  0.360000  0.040000     48.000000
 -0.480000  0.360000  0.040000     48.000000
 -0.440000  0.360000  0.040000     48.000000
 -0.400000  0.360000  0.040000     48.000000
 -0.360000  0.360000  0.040000     48.000000
 -0.320000  0.360000  0.040000     24.000000
  0.440000  0.400000  0.040000     24.000000
  0.480000  0.400000  0.040000     48.000000
 -0.480000  0.400000  0.040000     48.000000
 -0.440000  0.400000  0.040000     48.000000
 -0.400000  0.400000  0.040000     48.000000
 -0.360000  0.400000  0.040000     24.000000
  0.480000  0.440000  0.040000     24.000000
 -0.480000  0.440000  0.040000     48.000000
 -0.440000  0.440000  0.040000     48.000000
 -0.400000  0.440000  0.040000     24.000000
 -0.480000  0.480000  0.040000     24.000000
 -0.440000  0.480000  0.040000     24.000000
  0.240000  0.160000  0.080000     24.000000
  0.280000  0.160000  0.080000     48.000000
  0.320000  0.160000  0.080000     48.000000
  0.360000  0.160000  0.080000     48.000000
  0.400000  0.160000  0.080000     48.000000
  0.440000  0.160000  0.080000     48.000000
  0.480000  0.160000  0.080000     48.000000
 -0.480000  0.160000  0.080000     48.000000
 -0.440000  0.160000  0.080000     48.000000
  0.280000  0.200000  0.080000     24.000000
  0.320000  0.200000  0.080000     48.000000
  0.360000  0.200000  0.080000     48.000000
  0.400000  0.200000  0.080000     48.000000
  0.440000  0.200000  0.080000     48.000000
  0.480000  0.200000  0.080000     48.000000
 -0.480000  0.200000  0.080000     48.000000
 -0.440000  0.200000  0.080000     48.000000
 -0.400000  0.200000  0.080000     48.000000
 -0.360000  0.200000  0.080000     48.000000
 -0.320000  0.200000  0.080000     48.000000
 -0.280000  0.200000  0.080000     48.000000
 -0.240000  0.200000  0.080000     48.000000
 -0.200000  0.200000  0.080000     48.000000
 -0.160000  0.200000  0.080000     48.000000
 -0.120000  0.200000  0.080000     24.000000
  0.320000  0.240000  0.080000     24.000000
  0.360000  0.240000  0.080000     48.000000
  0.400000  0.240000  0.080000     48.000000
  0.440000  0.240000  0.080000     48.000000
  0.480000  0.240000  0.080000     48.000000
 -0.480000  0.240000  0.080000     48.000000
 -0.440000  0.240000  0.080000     48.000000
 -0.400000  0.240000  0.080000     48.000000
 -0.360000  0.240000  0.080000     48.000000
 -0.320000  0.240000  0.080000     48.000000
 -0.280000  0.240000  0.080000     48.000000
 -0.240000  0.240000  0.080000     48.000000
 -0.200000  0.240000  0.080000     48.000000
 -0.160000  0.240000  0.080000     24.000000
  0.360000  0.280000  0.080000     24.000000
  0.400000  0.280000  0.080000     48.000000
  0.440000  0.280000  0.080000     48.000000
  0.480000  0.280000  0.080000     48.000000
 -0.480000  0.280000  0.080000     48.000000
 -0.440000  0.280000  0.080000     48.000000
 -0.400000  0.280000  0.080000     48.000000
 -0.360000  0.280000  0.080000     48.000000
 -0.320000  0.280000  0.080000     48.000000
 -0.280000  0.280000  0.080000     48.000000
 -0.240000  0.280000  0.080000     48.000000
 -0.200000  0.280000  0.080000     24.000000
  0.400000  0.320000  0.080000     24.000000
  0.440000  0.320000  0.080000     48.000000
  0.480000  0.320000  0.080000     48.000000
 -0.480000  0.320000  0.080000     48.000000
 -0.440000  0.320000  0.080000     48.000000
 -0.400000  0.320000  0.080000     48.000000
 -0.360000  0.320000  0.080000     48.000000
 -0.320000  0.320000  0.080000     48.000000
 -0.280000  0.320000  0.080000     48.000000
 -0.240000  0.320000  0.080000     24.000000
  0.440000  0.360000  0.080000     24.000000
  0.480000  0.360000  0.080000     48.000000
 -0.480000  0.360000  0.080000     48.000000
 -0.440000  0.360000  0.080000     48.000000
 -0.400000  0.360000  0.080000     48.000000
 -0.360000  0.360000  0.080000     48.000000
 -0.320000  0.360000  0.080000     48.000000
 -0.280000  0.360000  0.080000     24.000000
  0.480000  0.400000  0.080000     24.000000
 -0.480000  0.400000  0.080000     48.000000
 -0.440000  0.400000  0.080000     48.000000
 -0.400000  0.400000  0.080000     48.000000
 -0.360000  0.400000  0.080000     48.000000
 -0.320000  0.400000  0.080000     24.000000
 -0.480000  0.440000  0.080000     24.000000
 -0.440000  0.440000  0.080000     48.000000
 -0.400000  0.440000  0.080000     48.000000
 -0.360000  0.440000  0.080000     24.000000
 -0.440000  0.480000  0.080000     24.000000
 -0.400000  0.480000  0.080000     24.000000
  0.360000  0.240000  0.120000     24.000000
  0.400000  0.240000  0.120000     48.000000
  0.440000  0.240000  0.120000     48.000000
  0.480000  0.240000  0.120000     48.000000
 -0.480000  0.240000  0.120000     48.000000
 -0.440000  0.240000  0.120000     48.000000
 -0.400000  0.240000  0.120000     48.000000
  0.400000  0.280000  0.120000     24.000000
  0.440000  0.280000  0.120000     48.000000
  0.480000  0.280000  0.120000     48.000000
 -0.480000  0.280000  0.120000     48.000000
 -0.440000  0.280000  0.120000     48.000000
 -0.400000  0.280000  0.120000     48.000000
 -0.360000  0.280000  0.120000     48.000000
 -0.320000  0.280000  0.120000     48.000000
 -0.280000  0.280000  0.120000     48.000000
 -0.240000  0.280000  0.120000     48.000000
 -0.200000  0.280000  0.120000     48.000000
 -0.160000  0.280000  0.120000     24.000000
  0.440000  0.320000  0.120000     24.000000
  0.480000  0.320000  0.120000     48.000000
 -0.480000  0.320000  0.120000     48.000000
 -0.440000  0.320000  0.120000     48.000000
 -0.400000  0.320000  0.120000     48.000000
 -0.360000  0.320000  0.120000     48.000000
 -0.320000  0.320000  0.120000     48.000000
 -0.280000  0.320000  0.120000     48.000000
 -0.240000  0.320000  0.120000     48.000000
 -0.200000  0.320000  0.120000     24.000000
  0.480000  0.360000  0.120000     24.000000
 -0.480000  0.360000  0.120000     48.000000
 -0.440000  0.360000  0.120000     48.000000
 -0.400000  0.360000  0.120000     48.000000
 -0.360000  0.360000  0.120000     48.000000
 -0.320000  0.360000  0.120000     48.000000
 -0.280000  0.360000  0.120000     48.000000
 -0.240000  0.360000  0.120000     24.000000
 -0.480000  0.400000  0.120000     24.000000
 -0.440000  0.400000  0.120000     48.000000
 -0.400000  0.400000  0.120000     48.000000
 -0.360000  0.400000  0.120000     48.000000
 -0.320000  0.400000  0.120000     48.000000
 -0.280000  0.400000  0.120000     24.000000
 -0.440000  0.440000  0.120000     24.000000
 -0.400000  0.440000  0.120000     48.000000
 -0.360000  0.440000  0.120000     48.000000
 -0.320000  0.440000  0.120000     24.000000
 -0.400000  0.480000  0.120000     24.000000
 -0.360000  0.480000  0.120000     24.000000
  0.480000  0.320000  0.160000     24.000000
 -0.480000  0.320000  0.160000     48.000000
 -0.440000  0.320000  0.160000     48.000000
 -0.400000  0.320000  0.160000     48.000000
 -0.360000  0.320000  0.160000     48.000000
 -0.480000  0.360000  0.160000     24.000000
 -0.440000  0.360000  0.160000     48.000000
 -0.400000  0.360000  0.160000     48.000000
 -0.360000  0.360000  0.160000     48.000000
 -0.320000  0.360000  0.160000     48.000000
 -0.280000  0.360000  0.160000     48.000000
 -0.240000  0.360000  0.160000     48.000000
 -0.200000  0.360000  0.160000     24.000000
 -0.440000  0.400000  0.160000     24.000000
 -0.400000  0.400000  0.160000     48.000000
 -0.360000  0.400000  0.160000     48.000000
 -0.320000  0.400000  0.160000     48.000000
 -0.280000  0.400000  0.160000     48.000000
 -0.240000  0.400000  0.160000     24.000000
 -0.400000  0.440000  0.160000     24.000000
 -0.360000  0.440000  0.160000     48.000000
 -0.320000  0.440000  0.160000     48.000000
 -0.280000  0.440000  0.160000     24.000000
 -0.360000  0.480000  0.160000     24.000000
 -0.320000  0.480000  0.160000     24.000000
 -0.400000  0.400000  0.200000     24.000000
 -0.360000  0.400000  0.200000     48.000000
 -0.320000  0.400000  0.200000     48.000000
 -0.360000  0.440000  0.200000     24.000000
 -0.320000  0.440000  0.200000     48.000000
 -0.280000  0.440000  0.200000     48.000000
 -0.240000  0.440000  0.200000     24.000000
 -0.320000  0.480000  0.200000     24.000000
 -0.280000  0.480000  0.200000     24.000000
 -0.280000  0.480000  0.240000     24.000000
 
 Following cartesian coordinates:
            Coordinates               Weight
  0.000000  0.000000  0.000000      1.000000
  0.009495  0.009495 -0.009495      8.000000
  0.018990  0.018990 -0.018990      8.000000
  0.028485  0.028485 -0.028485      8.000000
  0.037980  0.037980 -0.037980      8.000000
  0.047475  0.047475 -0.047475      8.000000
  0.056971  0.056971 -0.056971      8.000000
  0.066466  0.066466 -0.066466      8.000000
  0.075961  0.075961 -0.075961      8.000000
  0.085456  0.085456 -0.085456      8.000000
  0.094951  0.094951 -0.094951      8.000000
  0.104446  0.104446 -0.104446      8.000000
  0.113941  0.113941 -0.113941      8.000000
  0.000000  0.018990  0.000000      6.000000
  0.009495  0.028485 -0.009495     24.000000
  0.018990  0.037980 -0.018990     24.000000
  0.028485  0.047475 -0.028485     24.000000
  0.037980  0.056971 -0.037980     24.000000
  0.047475  0.066466 -0.047475     24.000000
  0.056971  0.075961 -0.056971     24.000000
  0.066466  0.085456 -0.066466     24.000000
  0.075961  0.094951 -0.075961     24.000000
  0.085456  0.104446 -0.085456     24.000000
  0.094951  0.113941 -0.094951     24.000000
  0.104446  0.123436 -0.104446     24.000000
 -0.123436 -0.104446  0.123436     24.000000
 -0.113941 -0.094951  0.113941     24.000000
 -0.104446 -0.085456  0.104446     24.000000
 -0.094951 -0.075961  0.094951     24.000000
 -0.085456 -0.066466  0.085456     24.000000
 -0.075961 -0.056971  0.075961     24.000000
 -0.066466 -0.047475  0.066466     24.000000
 -0.056971 -0.037980  0.056971     24.000000
 -0.047475 -0.028485  0.047475     24.000000
 -0.037980 -0.018990  0.037980     24.000000
 -0.028485 -0.009495  0.028485     24.000000
 -0.018990  0.000000  0.018990     12.000000
  0.000000  0.037980  0.000000      6.000000
  0.009495  0.047475 -0.009495     24.000000
  0.018990  0.056971 -0.018990     24.000000
  0.028485  0.066466 -0.028485     24.000000
  0.037980  0.075961 -0.037980     24.000000
  0.047475  0.085456 -0.047475     24.000000
  0.056971  0.094951 -0.056971     24.000000
  0.066466  0.104446 -0.066466     24.000000
  0.075961  0.113941 -0.075961     24.000000
  0.085456  0.123436 -0.085456     24.000000
  0.094951  0.132931 -0.094951     24.000000
 -0.132931 -0.094951  0.132931     24.000000
 -0.123436 -0.085456  0.123436     24.000000
 -0.113941 -0.075961  0.113941     24.000000
 -0.104446 -0.066466  0.104446     24.000000
 -0.094951 -0.056971  0.094951     24.000000
 -0.085456 -0.047475  0.085456     24.000000
 -0.075961 -0.037980  0.075961     24.000000
 -0.066466 -0.028485  0.066466     24.000000
 -0.056971 -0.018990  0.056971     24.000000
 -0.047475 -0.009495  0.047475     24.000000
 -0.037980  0.000000  0.037980     12.000000
  0.000000  0.056971  0.000000      6.000000
  0.009495  0.066466 -0.009495     24.000000
  0.018990  0.075961 -0.018990     24.000000
  0.028485  0.085456 -0.028485     24.000000
  0.037980  0.094951 -0.037980     24.000000
  0.047475  0.104446 -0.047475     24.000000
  0.056971  0.113941 -0.056971     24.000000
  0.066466  0.123436 -0.066466     24.000000
  0.075961  0.132931 -0.075961     24.000000
  0.085456  0.142426 -0.085456     24.000000
 -0.142426 -0.085456  0.142426     24.000000
 -0.132931 -0.075961  0.132931     24.000000
 -0.123436 -0.066466  0.123436     24.000000
 -0.113941 -0.056971  0.113941     24.000000
 -0.104446 -0.047475  0.104446     24.000000
 -0.094951 -0.037980  0.094951     24.000000
 -0.085456 -0.028485  0.085456     24.000000
 -0.075961 -0.018990  0.075961     24.000000
 -0.066466 -0.009495  0.066466     24.000000
 -0.056971  0.000000  0.056971     12.000000
  0.000000  0.075961  0.000000      6.000000
  0.009495  0.085456 -0.009495     24.000000
  0.018990  0.094951 -0.018990     24.000000
  0.028485  0.104446 -0.028485     24.000000
  0.037980  0.113941 -0.037980     24.000000
  0.047475  0.123436 -0.047475     24.000000
  0.056971  0.132931 -0.056971     24.000000
  0.066466  0.142426 -0.066466     24.000000
  0.075961  0.151922 -0.075961     24.000000
 -0.151922 -0.075961  0.151922     24.000000
 -0.142426 -0.066466  0.142426     24.000000
 -0.132931 -0.056971  0.132931     24.000000
 -0.123436 -0.047475  0.123436     24.000000
 -0.113941 -0.037980  0.113941     24.000000
 -0.104446 -0.028485  0.104446     24.000000
 -0.094951 -0.018990  0.094951     24.000000
 -0.085456 -0.009495  0.085456     24.000000
 -0.075961  0.000000  0.075961     12.000000
  0.000000  0.094951  0.000000      6.000000
  0.009495  0.104446 -0.009495     24.000000
  0.018990  0.113941 -0.018990     24.000000
  0.028485  0.123436 -0.028485     24.000000
  0.037980  0.132931 -0.037980     24.000000
  0.047475  0.142426 -0.047475     24.000000
  0.056971  0.151922 -0.056971     24.000000
  0.066466  0.161417 -0.066466     24.000000
 -0.161417 -0.066466  0.161417     24.000000
 -0.151922 -0.056971  0.151922     24.000000
 -0.142426 -0.047475  0.142426     24.000000
 -0.132931 -0.037980  0.132931     24.000000
 -0.123436 -0.028485  0.123436     24.000000
 -0.113941 -0.018990  0.113941     24.000000
 -0.104446 -0.009495  0.104446     24.000000
 -0.094951  0.000000  0.094951     12.000000
  0.000000  0.113941  0.000000      6.000000
  0.009495  0.123436 -0.009495     24.000000
  0.018990  0.132931 -0.018990     24.000000
  0.028485  0.142426 -0.028485     24.000000
  0.037980  0.151922 -0.037980     24.000000
  0.047475  0.161417 -0.047475     24.000000
  0.056971  0.170912 -0.056971     24.000000
 -0.170912 -0.056971  0.170912     24.000000
 -0.161417 -0.047475  0.161417     24.000000
 -0.151922 -0.037980  0.151922     24.000000
 -0.142426 -0.028485  0.142426     24.000000
 -0.132931 -0.018990  0.132931     24.000000
 -0.123436 -0.009495  0.123436     24.000000
 -0.113941  0.000000  0.113941     12.000000
  0.000000  0.132931  0.000000      6.000000
  0.009495  0.142426 -0.009495     24.000000
  0.018990  0.151922 -0.018990     24.000000
  0.028485  0.161417 -0.028485     24.000000
  0.037980  0.170912 -0.037980     24.000000
  0.047475  0.180407 -0.047475     24.000000
 -0.180407 -0.047475  0.180407     24.000000
 -0.170912 -0.037980  0.170912     24.000000
 -0.161417 -0.028485  0.161417     24.000000
 -0.151922 -0.018990  0.151922     24.000000
 -0.142426 -0.009495  0.142426     24.000000
 -0.132931  0.000000  0.132931     12.000000
  0.000000  0.151922  0.000000      6.000000
  0.009495  0.161417 -0.009495     24.000000
  0.018990  0.170912 -0.018990     24.000000
  0.028485  0.180407 -0.028485     24.000000
  0.037980  0.189902 -0.037980     24.000000
 -0.189902 -0.037980  0.189902     24.000000
 -0.180407 -0.028485  0.180407     24.000000
 -0.170912 -0.018990  0.170912     24.000000
 -0.161417 -0.009495  0.161417     24.000000
 -0.151922  0.000000  0.151922     12.000000
  0.000000  0.170912  0.000000      6.000000
  0.009495  0.180407 -0.009495     24.000000
  0.018990  0.189902 -0.018990     24.000000
  0.028485  0.199397 -0.028485     24.000000
 -0.199397 -0.028485  0.199397     24.000000
 -0.189902 -0.018990  0.189902     24.000000
 -0.180407 -0.009495  0.180407     24.000000
 -0.170912  0.000000  0.170912     12.000000
  0.000000  0.189902  0.000000      6.000000
  0.009495  0.199397 -0.009495     24.000000
  0.018990  0.208892 -0.018990     24.000000
 -0.208892 -0.018990  0.208892     24.000000
 -0.199397 -0.009495  0.199397     24.000000
 -0.189902  0.000000  0.189902     12.000000
  0.000000  0.208892  0.000000      6.000000
  0.009495  0.218387 -0.009495     24.000000
 -0.218387 -0.009495  0.218387     24.000000
 -0.208892 -0.000000  0.208892     12.000000
  0.000000  0.227882  0.000000      6.000000
 -0.227882 -0.000000  0.227882     12.000000
  0.018990  0.037980 -0.000000     24.000000
  0.028485  0.047475 -0.009495     48.000000
  0.037980  0.056971 -0.018990     48.000000
  0.047475  0.066466 -0.028485     48.000000
  0.056971  0.075961 -0.037980     48.000000
  0.066466  0.085456 -0.047475     48.000000
  0.075961  0.094951 -0.056971     48.000000
  0.085456  0.104446 -0.066466     48.000000
  0.094951  0.113941 -0.075961     48.000000
  0.104446  0.123436 -0.085456     48.000000
 -0.123436 -0.104446  0.142426     48.000000
  0.018990  0.056971  0.000000     24.000000
  0.028485  0.066466 -0.009495     48.000000
  0.037980  0.075961 -0.018990     48.000000
  0.047475  0.085456 -0.028485     48.000000
  0.056971  0.094951 -0.037980     48.000000
  0.066466  0.104446 -0.047475     48.000000
  0.075961  0.113941 -0.056971     48.000000
  0.085456  0.123436 -0.066466     48.000000
  0.094951  0.132931 -0.075961     48.000000
 -0.132931 -0.094951  0.151922     48.000000
 -0.123436 -0.085456  0.142426     48.000000
 -0.113941 -0.075961  0.132931     48.000000
 -0.104446 -0.066466  0.123436     48.000000
 -0.094951 -0.056971  0.113941     48.000000
 -0.085456 -0.047475  0.104446     48.000000
 -0.075961 -0.037980  0.094951     48.000000
 -0.066466 -0.028485  0.085456     48.000000
 -0.056971 -0.018990  0.075961     48.000000
 -0.047475 -0.009495  0.066466     48.000000
 -0.037980  0.000000  0.056971     24.000000
  0.018990  0.075961 -0.000000     24.000000
  0.028485  0.085456 -0.009495     48.000000
  0.037980  0.094951 -0.018990     48.000000
  0.047475  0.104446 -0.028485     48.000000
  0.056971  0.113941 -0.037980     48.000000
  0.066466  0.123436 -0.047475     48.000000
  0.075961  0.132931 -0.056971     48.000000
  0.085456  0.142426 -0.066466     48.000000
 -0.142426 -0.085456  0.161417     48.000000
 -0.132931 -0.075961  0.151922     48.000000
 -0.123436 -0.066466  0.142426     48.000000
 -0.113941 -0.056971  0.132931     48.000000
 -0.104446 -0.047475  0.123436     48.000000
 -0.094951 -0.037980  0.113941     48.000000
 -0.085456 -0.028485  0.104446     48.000000
 -0.075961 -0.018990  0.094951     48.000000
 -0.066466 -0.009495  0.085456     48.000000
 -0.056971 -0.000000  0.075961     24.000000
  0.018990  0.094951 -0.000000     24.000000
  0.028485  0.104446 -0.009495     48.000000
  0.037980  0.113941 -0.018990     48.000000
  0.047475  0.123436 -0.028485     48.000000
  0.056971  0.132931 -0.037980     48.000000
  0.066466  0.142426 -0.047475     48.000000
  0.075961  0.151922 -0.056971     48.000000
 -0.151922 -0.075961  0.170912     48.000000
 -0.142426 -0.066466  0.161417     48.000000
 -0.132931 -0.056971  0.151922     48.000000
 -0.123436 -0.047475  0.142426     48.000000
 -0.113941 -0.037980  0.132931     48.000000
 -0.104446 -0.028485  0.123436     48.000000
 -0.094951 -0.018990  0.113941     48.000000
 -0.085456 -0.009495  0.104446     48.000000
 -0.075961  0.000000  0.094951     24.000000
  0.018990  0.113941  0.000000     24.000000
  0.028485  0.123436 -0.009495     48.000000
  0.037980  0.132931 -0.018990     48.000000
  0.047475  0.142426 -0.028485     48.000000
  0.056971  0.151922 -0.037980     48.000000
  0.066466  0.161417 -0.047475     48.000000
 -0.161417 -0.066466  0.180407     48.000000
 -0.151922 -0.056971  0.170912     48.000000
 -0.142426 -0.047475  0.161417     48.000000
 -0.132931 -0.037980  0.151922     48.000000
 -0.123436 -0.028485  0.142426     48.000000
 -0.113941 -0.018990  0.132931     48.000000
 -0.104446 -0.009495  0.123436     48.000000
 -0.094951 -0.000000  0.113941     24.000000
  0.018990  0.132931  0.000000     24.000000
  0.028485  0.142426 -0.009495     48.000000
  0.037980  0.151922 -0.018990     48.000000
  0.047475  0.161417 -0.028485     48.000000
  0.056971  0.170912 -0.037980     48.000000
 -0.170912 -0.056971  0.189902     48.000000
 -0.161417 -0.047475  0.180407     48.000000
 -0.151922 -0.037980  0.170912     48.000000
 -0.142426 -0.028485  0.161417     48.000000
 -0.132931 -0.018990  0.151922     48.000000
 -0.123436 -0.009495  0.142426     48.000000
 -0.113941 -0.000000  0.132931     24.000000
  0.018990  0.151922 -0.000000     24.000000
  0.028485  0.161417 -0.009495     48.000000
  0.037980  0.170912 -0.018990     48.000000
  0.047475  0.180407 -0.028485     48.000000
 -0.180407 -0.047475  0.199397     48.000000
 -0.170912 -0.037980  0.189902     48.000000
 -0.161417 -0.028485  0.180407     48.000000
 -0.151922 -0.018990  0.170912     48.000000
 -0.142426 -0.009495  0.161417     48.000000
 -0.132931 -0.000000  0.151922     24.000000
  0.018990  0.170912  0.000000     24.000000
  0.028485  0.180407 -0.009495     48.000000
  0.037980  0.189902 -0.018990     48.000000
 -0.189902 -0.037980  0.208892     48.000000
 -0.180407 -0.028485  0.199397     48.000000
 -0.170912 -0.018990  0.189902     48.000000
 -0.161417 -0.009495  0.180407     48.000000
 -0.151922  0.000000  0.170912     24.000000
  0.018990  0.189902  0.000000     24.000000
  0.028485  0.199397 -0.009495     48.000000
 -0.199397 -0.028485  0.218387     48.000000
 -0.189902 -0.018990  0.208892     48.000000
 -0.180407 -0.009495  0.199397     48.000000
 -0.170912  0.000000  0.189902     24.000000
  0.018990  0.208892 -0.000000     24.000000
 -0.208892 -0.018990  0.227882     48.000000
 -0.199397 -0.009495  0.218387     48.000000
 -0.189902 -0.000000  0.208892     24.000000
 -0.218387 -0.009495  0.237377     24.000000
 -0.208892 -0.000000  0.227882     24.000000
  0.037980  0.075961 -0.000000     24.000000
  0.047475  0.085456 -0.009495     48.000000
  0.056971  0.094951 -0.018990     48.000000
  0.066466  0.104446 -0.028485     48.000000
  0.075961  0.113941 -0.037980     48.000000
  0.085456  0.123436 -0.047475     48.000000
  0.094951  0.132931 -0.056971     48.000000
 -0.132931 -0.094951  0.170912     48.000000
 -0.123436 -0.085456  0.161417     48.000000
  0.037980  0.094951 -0.000000     24.000000
  0.047475  0.104446 -0.009495     48.000000
  0.056971  0.113941 -0.018990     48.000000
  0.066466  0.123436 -0.028485     48.000000
  0.075961  0.132931 -0.037980     48.000000
  0.085456  0.142426 -0.047475     48.000000
 -0.142426 -0.085456  0.180407     48.000000
 -0.132931 -0.075961  0.170912     48.000000
 -0.123436 -0.066466  0.161417     48.000000
 -0.113941 -0.056971  0.151922     48.000000
 -0.104446 -0.047475  0.142426     48.000000
 -0.094951 -0.037980  0.132931     48.000000
 -0.085456 -0.028485  0.123436     48.000000
 -0.075961 -0.018990  0.113941     48.000000
 -0.066466 -0.009495  0.104446     48.000000
 -0.056971 -0.000000  0.094951     24.000000
  0.037980  0.113941  0.000000     24.000000
  0.047475  0.123436 -0.009495     48.000000
  0.056971  0.132931 -0.018990     48.000000
  0.066466  0.142426 -0.028485     48.000000
  0.075961  0.151922 -0.037980     48.000000
 -0.151922 -0.075961  0.189902     48.000000
 -0.142426 -0.066466  0.180407     48.000000
 -0.132931 -0.056971  0.170912     48.000000
 -0.123436 -0.047475  0.161417     48.000000
 -0.113941 -0.037980  0.151922     48.000000
 -0.104446 -0.028485  0.142426     48.000000
 -0.094951 -0.018990  0.132931     48.000000
 -0.085456 -0.009495  0.123436     48.000000
 -0.075961  0.000000  0.113941     24.000000
  0.037980  0.132931  0.000000     24.000000
  0.047475  0.142426 -0.009495     48.000000
  0.056971  0.151922 -0.018990     48.000000
  0.066466  0.161417 -0.028485     48.000000
 -0.161417 -0.066466  0.199397     48.000000
 -0.151922 -0.056971  0.189902     48.000000
 -0.142426 -0.047475  0.180407     48.000000
 -0.132931 -0.037980  0.170912     48.000000
 -0.123436 -0.028485  0.161417     48.000000
 -0.113941 -0.018990  0.151922     48.000000
 -0.104446 -0.009495  0.142426     48.000000
 -0.094951  0.000000  0.132931     24.000000
  0.037980  0.151922 -0.000000     24.000000
  0.047475  0.161417 -0.009495     48.000000
  0.056971  0.170912 -0.018990     48.000000
 -0.170912 -0.056971  0.208892     48.000000
 -0.161417 -0.047475  0.199397     48.000000
 -0.151922 -0.037980  0.189902     48.000000
 -0.142426 -0.028485  0.180407     48.000000
 -0.132931 -0.018990  0.170912     48.000000
 -0.123436 -0.009495  0.161417     48.000000
 -0.113941 -0.000000  0.151922     24.000000
  0.037980  0.170912  0.000000     24.000000
  0.047475  0.180407 -0.009495     48.000000
 -0.180407 -0.047475  0.218387     48.000000
 -0.170912 -0.037980  0.208892     48.000000
 -0.161417 -0.028485  0.199397     48.000000
 -0.151922 -0.018990  0.189902     48.000000
 -0.142426 -0.009495  0.180407     48.000000
 -0.132931 -0.000000  0.170912     24.000000
  0.037980  0.189902  0.000000     24.000000
 -0.189902 -0.037980  0.227882     48.000000
 -0.180407 -0.028485  0.218387     48.000000
 -0.170912 -0.018990  0.208892     48.000000
 -0.161417 -0.009495  0.199397     48.000000
 -0.151922  0.000000  0.189902     24.000000
 -0.199397 -0.028485  0.237377     24.000000
 -0.189902 -0.018990  0.227882     48.000000
 -0.180407 -0.009495  0.218387     48.000000
 -0.170912 -0.000000  0.208892     24.000000
 -0.199397 -0.009495  0.237377     24.000000
 -0.189902 -0.000000  0.227882     24.000000
  0.056971  0.113941  0.000000     24.000000
  0.066466  0.123436 -0.009495     48.000000
  0.075961  0.132931 -0.018990     48.000000
  0.085456  0.142426 -0.028485     48.000000
 -0.142426 -0.085456  0.199397     48.000000
 -0.132931 -0.075961  0.189902     48.000000
 -0.123436 -0.066466  0.180407     48.000000
  0.056971  0.132931  0.000000     24.000000
  0.066466  0.142426 -0.009495     48.000000
  0.075961  0.151922 -0.018990     48.000000
 -0.151922 -0.075961  0.208892     48.000000
 -0.142426 -0.066466  0.199397     48.000000
 -0.132931 -0.056971  0.189902     48.000000
 -0.123436 -0.047475  0.180407     48.000000
 -0.113941 -0.037980  0.170912     48.000000
 -0.104446 -0.028485  0.161417     48.000000
 -0.094951 -0.018990  0.151922     48.000000
 -0.085456 -0.009495  0.142426     48.000000
 -0.075961  0.000000  0.132931     24.000000
  0.056971  0.151922  0.000000     24.000000
  0.066466  0.161417 -0.009495     48.000000
 -0.161417 -0.066466  0.218387     48.000000
 -0.151922 -0.056971  0.208892     48.000000
 -0.142426 -0.047475  0.199397     48.000000
 -0.132931 -0.037980  0.189902     48.000000
 -0.123436 -0.028485  0.180407     48.000000
 -0.113941 -0.018990  0.170912     48.000000
 -0.104446 -0.009495  0.161417     48.000000
 -0.094951 -0.000000  0.151922     24.000000
  0.056971  0.170912 -0.000000     24.000000
 -0.170912 -0.056971  0.227882     48.000000
 -0.161417 -0.047475  0.218387     48.000000
 -0.151922 -0.037980  0.208892     48.000000
 -0.142426 -0.028485  0.199397     48.000000
 -0.132931 -0.018990  0.189902     48.000000
 -0.123436 -0.009495  0.180407     48.000000
 -0.113941 -0.000000  0.170912     24.000000
 -0.180407 -0.047475  0.237377     24.000000
 -0.170912 -0.037980  0.227882     48.000000
 -0.161417 -0.028485  0.218387     48.000000
 -0.151922 -0.018990  0.208892     48.000000
 -0.142426 -0.009495  0.199397     48.000000
 -0.132931  0.000000  0.189902     24.000000
 -0.180407 -0.028485  0.237377     24.000000
 -0.170912 -0.018990  0.227882     48.000000
 -0.161417 -0.009495  0.218387     48.000000
 -0.151922 -0.000000  0.208892     24.000000
 -0.180407 -0.009495  0.237377     24.000000
 -0.170912 -0.000000  0.227882     24.000000
  0.075961  0.151922  0.000000     24.000000
 -0.151922 -0.075961  0.227882     48.000000
 -0.142426 -0.066466  0.218387     48.000000
 -0.132931 -0.056971  0.208892     48.000000
 -0.123436 -0.047475  0.199397     48.000000
 -0.161417 -0.066466  0.237377     24.000000
 -0.151922 -0.056971  0.227882     48.000000
 -0.142426 -0.047475  0.218387     48.000000
 -0.132931 -0.037980  0.208892     48.000000
 -0.123436 -0.028485  0.199397     48.000000
 -0.113941 -0.018990  0.189902     48.000000
 -0.104446 -0.009495  0.180407     48.000000
 -0.094951  0.000000  0.170912     24.000000
 -0.161417 -0.047475  0.237377     24.000000
 -0.151922 -0.037980  0.227882     48.000000
 -0.142426 -0.028485  0.218387     48.000000
 -0.132931 -0.018990  0.208892     48.000000
 -0.123436 -0.009495  0.199397     48.000000
 -0.113941 -0.000000  0.189902     24.000000
 -0.161417 -0.028485  0.237377     24.000000
 -0.151922 -0.018990  0.227882     48.000000
 -0.142426 -0.009495  0.218387     48.000000
 -0.132931 -0.000000  0.208892     24.000000
 -0.161417 -0.009495  0.237377     24.000000
 -0.151922 -0.000000  0.227882     24.000000
 -0.142426 -0.047475  0.237377     24.000000
 -0.132931 -0.037980  0.227882     48.000000
 -0.123436 -0.028485  0.218387     48.000000
 -0.142426 -0.028485  0.237377     24.000000
 -0.132931 -0.018990  0.227882     48.000000
 -0.123436 -0.009495  0.218387     48.000000
 -0.113941 -0.000000  0.208892     24.000000
 -0.142426 -0.009495  0.237377     24.000000
 -0.132931 -0.000000  0.227882     24.000000
 -0.123436 -0.009495  0.237377     24.000000
 
 TETIRR: Found   2119 inequivalent tetrahedra from    93750
 
 Subroutine IBZKPT_HF returns following result:
 ==============================================
 
 Found  15625 k-points in 1st BZ
 the following  15625 k-points will be used (e.g. in the exchange kernel)
 Following reciprocal coordinates:   # in IRBZ
  0.000000  0.000000  0.000000    0.00006400   1 t-inv F
  0.040000  0.000000  0.000000    0.00006400   2 t-inv F
  0.080000  0.000000  0.000000    0.00006400   3 t-inv F
  0.120000  0.000000  0.000000    0.00006400   4 t-inv F
  0.160000  0.000000  0.000000    0.00006400   5 t-inv F
  0.200000  0.000000  0.000000    0.00006400   6 t-inv F
  0.240000  0.000000  0.000000    0.00006400   7 t-inv F
  0.280000  0.000000  0.000000    0.00006400   8 t-inv F
  0.320000  0.000000  0.000000    0.00006400   9 t-inv F
  0.360000  0.000000  0.000000    0.00006400  10 t-inv F
  0.400000  0.000000  0.000000    0.00006400  11 t-inv F
  0.440000  0.000000  0.000000    0.00006400  12 t-inv F
  0.480000  0.000000  0.000000    0.00006400  13 t-inv F
  0.040000  0.040000  0.000000    0.00006400  14 t-inv F
  0.080000  0.040000  0.000000    0.00006400  15 t-inv F
  0.120000  0.040000  0.000000    0.00006400  16 t-inv F
  0.160000  0.040000  0.000000    0.00006400  17 t-inv F
  0.200000  0.040000  0.000000    0.00006400  18 t-inv F
  0.240000  0.040000  0.000000    0.00006400  19 t-inv F
  0.280000  0.040000  0.000000    0.00006400  20 t-inv F
  0.320000  0.040000  0.000000    0.00006400  21 t-inv F
  0.360000  0.040000  0.000000    0.00006400  22 t-inv F
  0.400000  0.040000  0.000000    0.00006400  23 t-inv F
  0.440000  0.040000  0.000000    0.00006400  24 t-inv F
  0.480000  0.040000  0.000000    0.00006400  25 t-inv F
 -0.480000  0.040000  0.000000    0.00006400  26 t-inv F
 -0.440000  0.040000  0.000000    0.00006400  27 t-inv F
 -0.400000  0.040000  0.000000    0.00006400  28 t-inv F
 -0.360000  0.040000  0.000000    0.00006400  29 t-inv F
 -0.320000  0.040000  0.000000    0.00006400  30 t-inv F
 -0.280000  0.040000  0.000000    0.00006400  31 t-inv F
 -0.240000  0.040000  0.000000    0.00006400  32 t-inv F
 -0.200000  0.040000  0.000000    0.00006400  33 t-inv F
 -0.160000  0.040000  0.000000    0.00006400  34 t-inv F
 -0.120000  0.040000  0.000000    0.00006400  35 t-inv F
 -0.080000  0.040000  0.000000    0.00006400  36 t-inv F
 -0.040000  0.040000  0.000000    0.00006400  37 t-inv F
  0.080000  0.080000  0.000000    0.00006400  38 t-inv F
  0.120000  0.080000  0.000000    0.00006400  39 t-inv F
  0.160000  0.080000  0.000000    0.00006400  40 t-inv F
  0.200000  0.080000  0.000000    0.00006400  41 t-inv F
  0.240000  0.080000  0.000000    0.00006400  42 t-inv F
  0.280000  0.080000  0.000000    0.00006400  43 t-inv F
  0.320000  0.080000  0.000000    0.00006400  44 t-inv F
  0.360000  0.080000  0.000000    0.00006400  45 t-inv F
  0.400000  0.080000  0.000000    0.00006400  46 t-inv F
  0.440000  0.080000  0.000000    0.00006400  47 t-inv F
  0.480000  0.080000  0.000000    0.00006400  48 t-inv F
 -0.480000  0.080000  0.000000    0.00006400  49 t-inv F
 -0.440000  0.080000  0.000000    0.00006400  50 t-inv F
 -0.400000  0.080000  0.000000    0.00006400  51 t-inv F
 -0.360000  0.080000  0.000000    0.00006400  52 t-inv F
 -0.320000  0.080000  0.000000    0.00006400  53 t-inv F
 -0.280000  0.080000  0.000000    0.00006400  54 t-inv F
 -0.240000  0.080000  0.000000    0.00006400  55 t-inv F
 -0.200000  0.080000  0.000000    0.00006400  56 t-inv F
 -0.160000  0.080000  0.000000    0.00006400  57 t-inv F
 -0.120000  0.080000  0.000000    0.00006400  58 t-inv F
 -0.080000  0.080000  0.000000    0.00006400  59 t-inv F
  0.120000  0.120000  0.000000    0.00006400  60 t-inv F
  0.160000  0.120000  0.000000    0.00006400  61 t-inv F
  0.200000  0.120000  0.000000    0.00006400  62 t-inv F
  0.240000  0.120000  0.000000    0.00006400  63 t-inv F
  0.280000  0.120000  0.000000    0.00006400  64 t-inv F
  0.320000  0.120000  0.000000    0.00006400  65 t-inv F
  0.360000  0.120000  0.000000    0.00006400  66 t-inv F
  0.400000  0.120000  0.000000    0.00006400  67 t-inv F
  0.440000  0.120000  0.000000    0.00006400  68 t-inv F
  0.480000  0.120000  0.000000    0.00006400  69 t-inv F
 -0.480000  0.120000  0.000000    0.00006400  70 t-inv F
 -0.440000  0.120000  0.000000    0.00006400  71 t-inv F
 -0.400000  0.120000  0.000000    0.00006400  72 t-inv F
 -0.360000  0.120000  0.000000    0.00006400  73 t-inv F
 -0.320000  0.120000  0.000000    0.00006400  74 t-inv F
 -0.280000  0.120000  0.000000    0.00006400  75 t-inv F
 -0.240000  0.120000  0.000000    0.00006400  76 t-inv F
 -0.200000  0.120000  0.000000    0.00006400  77 t-inv F
 -0.160000  0.120000  0.000000    0.00006400  78 t-inv F
 -0.120000  0.120000  0.000000    0.00006400  79 t-inv F
  0.160000  0.160000  0.000000    0.00006400  80 t-inv F
  0.200000  0.160000  0.000000    0.00006400  81 t-inv F
  0.240000  0.160000  0.000000    0.00006400  82 t-inv F
  0.280000  0.160000  0.000000    0.00006400  83 t-inv F
  0.320000  0.160000  0.000000    0.00006400  84 t-inv F
  0.360000  0.160000  0.000000    0.00006400  85 t-inv F
  0.400000  0.160000  0.000000    0.00006400  86 t-inv F
  0.440000  0.160000  0.000000    0.00006400  87 t-inv F
  0.480000  0.160000  0.000000    0.00006400  88 t-inv F
 -0.480000  0.160000  0.000000    0.00006400  89 t-inv F
 -0.440000  0.160000  0.000000    0.00006400  90 t-inv F
 -0.400000  0.160000  0.000000    0.00006400  91 t-inv F
 -0.360000  0.160000  0.000000    0.00006400  92 t-inv F
 -0.320000  0.160000  0.000000    0.00006400  93 t-inv F
 -0.280000  0.160000  0.000000    0.00006400  94 t-inv F
 -0.240000  0.160000  0.000000    0.00006400  95 t-inv F
 -0.200000  0.160000  0.000000    0.00006400  96 t-inv F
 -0.160000  0.160000  0.000000    0.00006400  97 t-inv F
  0.200000  0.200000  0.000000    0.00006400  98 t-inv F
  0.240000  0.200000  0.000000    0.00006400  99 t-inv F
  0.280000  0.200000  0.000000    0.00006400 100 t-inv F
  0.320000  0.200000  0.000000    0.00006400 101 t-inv F
  0.360000  0.200000  0.000000    0.00006400 102 t-inv F
  0.400000  0.200000  0.000000    0.00006400 103 t-inv F
  0.440000  0.200000  0.000000    0.00006400 104 t-inv F
  0.480000  0.200000  0.000000    0.00006400 105 t-inv F
 -0.480000  0.200000  0.000000    0.00006400 106 t-inv F
 -0.440000  0.200000  0.000000    0.00006400 107 t-inv F
 -0.400000  0.200000  0.000000    0.00006400 108 t-inv F
 -0.360000  0.200000  0.000000    0.00006400 109 t-inv F
 -0.320000  0.200000  0.000000    0.00006400 110 t-inv F
 -0.280000  0.200000  0.000000    0.00006400 111 t-inv F
 -0.240000  0.200000  0.000000    0.00006400 112 t-inv F
 -0.200000  0.200000  0.000000    0.00006400 113 t-inv F
  0.240000  0.240000  0.000000    0.00006400 114 t-inv F
  0.280000  0.240000  0.000000    0.00006400 115 t-inv F
  0.320000  0.240000  0.000000    0.00006400 116 t-inv F
  0.360000  0.240000  0.000000    0.00006400 117 t-inv F
  0.400000  0.240000  0.000000    0.00006400 118 t-inv F
  0.440000  0.240000  0.000000    0.00006400 119 t-inv F
  0.480000  0.240000  0.000000    0.00006400 120 t-inv F
 -0.480000  0.240000  0.000000    0.00006400 121 t-inv F
 -0.440000  0.240000  0.000000    0.00006400 122 t-inv F
 -0.400000  0.240000  0.000000    0.00006400 123 t-inv F
 -0.360000  0.240000  0.000000    0.00006400 124 t-inv F
 -0.320000  0.240000  0.000000    0.00006400 125 t-inv F
 -0.280000  0.240000  0.000000    0.00006400 126 t-inv F
 -0.240000  0.240000  0.000000    0.00006400 127 t-inv F
  0.280000  0.280000  0.000000    0.00006400 128 t-inv F
  0.320000  0.280000  0.000000    0.00006400 129 t-inv F
  0.360000  0.280000  0.000000    0.00006400 130 t-inv F
  0.400000  0.280000  0.000000    0.00006400 131 t-inv F
  0.440000  0.280000  0.000000    0.00006400 132 t-inv F
  0.480000  0.280000  0.000000    0.00006400 133 t-inv F
 -0.480000  0.280000  0.000000    0.00006400 134 t-inv F
 -0.440000  0.280000  0.000000    0.00006400 135 t-inv F
 -0.400000  0.280000  0.000000    0.00006400 136 t-inv F
 -0.360000  0.280000  0.000000    0.00006400 137 t-inv F
 -0.320000  0.280000  0.000000    0.00006400 138 t-inv F
 -0.280000  0.280000  0.000000    0.00006400 139 t-inv F
  0.320000  0.320000  0.000000    0.00006400 140 t-inv F
  0.360000  0.320000  0.000000    0.00006400 141 t-inv F
  0.400000  0.320000  0.000000    0.00006400 142 t-inv F
  0.440000  0.320000  0.000000    0.00006400 143 t-inv F
  0.480000  0.320000  0.000000    0.00006400 144 t-inv F
 -0.480000  0.320000  0.000000    0.00006400 145 t-inv F
 -0.440000  0.320000  0.000000    0.00006400 146 t-inv F
 -0.400000  0.320000  0.000000    0.00006400 147 t-inv F
 -0.360000  0.320000  0.000000    0.00006400 148 t-inv F
 -0.320000  0.320000  0.000000    0.00006400 149 t-inv F
  0.360000  0.360000  0.000000    0.00006400 150 t-inv F
  0.400000  0.360000  0.000000    0.00006400 151 t-inv F
  0.440000  0.360000  0.000000    0.00006400 152 t-inv F
  0.480000  0.360000  0.000000    0.00006400 153 t-inv F
 -0.480000  0.360000  0.000000    0.00006400 154 t-inv F
 -0.440000  0.360000  0.000000    0.00006400 155 t-inv F
 -0.400000  0.360000  0.000000    0.00006400 156 t-inv F
 -0.360000  0.360000  0.000000    0.00006400 157 t-inv F
  0.400000  0.400000  0.000000    0.00006400 158 t-inv F
  0.440000  0.400000  0.000000    0.00006400 159 t-inv F
  0.480000  0.400000  0.000000    0.00006400 160 t-inv F
 -0.480000  0.400000  0.000000    0.00006400 161 t-inv F
 -0.440000  0.400000  0.000000    0.00006400 162 t-inv F
 -0.400000  0.400000  0.000000    0.00006400 163 t-inv F
  0.440000  0.440000  0.000000    0.00006400 164 t-inv F
  0.480000  0.440000  0.000000    0.00006400 165 t-inv F
 -0.480000  0.440000  0.000000    0.00006400 166 t-inv F
 -0.440000  0.440000  0.000000    0.00006400 167 t-inv F
  0.480000  0.480000  0.000000    0.00006400 168 t-inv F
 -0.480000  0.480000  0.000000    0.00006400 169 t-inv F
  0.120000  0.080000  0.040000    0.00006400 170 t-inv F
  0.160000  0.080000  0.040000    0.00006400 171 t-inv F
  0.200000  0.080000  0.040000    0.00006400 172 t-inv F
  0.240000  0.080000  0.040000    0.00006400 173 t-inv F
  0.280000  0.080000  0.040000    0.00006400 174 t-inv F
  0.320000  0.080000  0.040000    0.00006400 175 t-inv F
  0.360000  0.080000  0.040000    0.00006400 176 t-inv F
  0.400000  0.080000  0.040000    0.00006400 177 t-inv F
  0.440000  0.080000  0.040000    0.00006400 178 t-inv F
  0.480000  0.080000  0.040000    0.00006400 179 t-inv F
 -0.480000  0.080000  0.040000    0.00006400 180 t-inv F
  0.160000  0.120000  0.040000    0.00006400 181 t-inv F
  0.200000  0.120000  0.040000    0.00006400 182 t-inv F
  0.240000  0.120000  0.040000    0.00006400 183 t-inv F
  0.280000  0.120000  0.040000    0.00006400 184 t-inv F
  0.320000  0.120000  0.040000    0.00006400 185 t-inv F
  0.360000  0.120000  0.040000    0.00006400 186 t-inv F
  0.400000  0.120000  0.040000    0.00006400 187 t-inv F
  0.440000  0.120000  0.040000    0.00006400 188 t-inv F
  0.480000  0.120000  0.040000    0.00006400 189 t-inv F
 -0.480000  0.120000  0.040000    0.00006400 190 t-inv F
 -0.440000  0.120000  0.040000    0.00006400 191 t-inv F
 -0.400000  0.120000  0.040000    0.00006400 192 t-inv F
 -0.360000  0.120000  0.040000    0.00006400 193 t-inv F
 -0.320000  0.120000  0.040000    0.00006400 194 t-inv F
 -0.280000  0.120000  0.040000    0.00006400 195 t-inv F
 -0.240000  0.120000  0.040000    0.00006400 196 t-inv F
 -0.200000  0.120000  0.040000    0.00006400 197 t-inv F
 -0.160000  0.120000  0.040000    0.00006400 198 t-inv F
 -0.120000  0.120000  0.040000    0.00006400 199 t-inv F
 -0.080000  0.120000  0.040000    0.00006400 200 t-inv F
  0.200000  0.160000  0.040000    0.00006400 201 t-inv F
  0.240000  0.160000  0.040000    0.00006400 202 t-inv F
  0.280000  0.160000  0.040000    0.00006400 203 t-inv F
  0.320000  0.160000  0.040000    0.00006400 204 t-inv F
  0.360000  0.160000  0.040000    0.00006400 205 t-inv F
  0.400000  0.160000  0.040000    0.00006400 206 t-inv F
  0.440000  0.160000  0.040000    0.00006400 207 t-inv F
  0.480000  0.160000  0.040000    0.00006400 208 t-inv F
 -0.480000  0.160000  0.040000    0.00006400 209 t-inv F
 -0.440000  0.160000  0.040000    0.00006400 210 t-inv F
 -0.400000  0.160000  0.040000    0.00006400 211 t-inv F
 -0.360000  0.160000  0.040000    0.00006400 212 t-inv F
 -0.320000  0.160000  0.040000    0.00006400 213 t-inv F
 -0.280000  0.160000  0.040000    0.00006400 214 t-inv F
 -0.240000  0.160000  0.040000    0.00006400 215 t-inv F
 -0.200000  0.160000  0.040000    0.00006400 216 t-inv F
 -0.160000  0.160000  0.040000    0.00006400 217 t-inv F
 -0.120000  0.160000  0.040000    0.00006400 218 t-inv F
  0.240000  0.200000  0.040000    0.00006400 219 t-inv F
  0.280000  0.200000  0.040000    0.00006400 220 t-inv F
  0.320000  0.200000  0.040000    0.00006400 221 t-inv F
  0.360000  0.200000  0.040000    0.00006400 222 t-inv F
  0.400000  0.200000  0.040000    0.00006400 223 t-inv F
  0.440000  0.200000  0.040000    0.00006400 224 t-inv F
  0.480000  0.200000  0.040000    0.00006400 225 t-inv F
 -0.480000  0.200000  0.040000    0.00006400 226 t-inv F
 -0.440000  0.200000  0.040000    0.00006400 227 t-inv F
 -0.400000  0.200000  0.040000    0.00006400 228 t-inv F
 -0.360000  0.200000  0.040000    0.00006400 229 t-inv F
 -0.320000  0.200000  0.040000    0.00006400 230 t-inv F
 -0.280000  0.200000  0.040000    0.00006400 231 t-inv F
 -0.240000  0.200000  0.040000    0.00006400 232 t-inv F
 -0.200000  0.200000  0.040000    0.00006400 233 t-inv F
 -0.160000  0.200000  0.040000    0.00006400 234 t-inv F
  0.280000  0.240000  0.040000    0.00006400 235 t-inv F
  0.320000  0.240000  0.040000    0.00006400 236 t-inv F
  0.360000  0.240000  0.040000    0.00006400 237 t-inv F
  0.400000  0.240000  0.040000    0.00006400 238 t-inv F
  0.440000  0.240000  0.040000    0.00006400 239 t-inv F
  0.480000  0.240000  0.040000    0.00006400 240 t-inv F
 -0.480000  0.240000  0.040000    0.00006400 241 t-inv F
 -0.440000  0.240000  0.040000    0.00006400 242 t-inv F
 -0.400000  0.240000  0.040000    0.00006400 243 t-inv F
 -0.360000  0.240000  0.040000    0.00006400 244 t-inv F
 -0.320000  0.240000  0.040000    0.00006400 245 t-inv F
 -0.280000  0.240000  0.040000    0.00006400 246 t-inv F
 -0.240000  0.240000  0.040000    0.00006400 247 t-inv F
 -0.200000  0.240000  0.040000    0.00006400 248 t-inv F
  0.320000  0.280000  0.040000    0.00006400 249 t-inv F
  0.360000  0.280000  0.040000    0.00006400 250 t-inv F
  0.400000  0.280000  0.040000    0.00006400 251 t-inv F
  0.440000  0.280000  0.040000    0.00006400 252 t-inv F
  0.480000  0.280000  0.040000    0.00006400 253 t-inv F
 -0.480000  0.280000  0.040000    0.00006400 254 t-inv F
 -0.440000  0.280000  0.040000    0.00006400 255 t-inv F
 -0.400000  0.280000  0.040000    0.00006400 256 t-inv F
 -0.360000  0.280000  0.040000    0.00006400 257 t-inv F
 -0.320000  0.280000  0.040000    0.00006400 258 t-inv F
 -0.280000  0.280000  0.040000    0.00006400 259 t-inv F
 -0.240000  0.280000  0.040000    0.00006400 260 t-inv F
  0.360000  0.320000  0.040000    0.00006400 261 t-inv F
  0.400000  0.320000  0.040000    0.00006400 262 t-inv F
  0.440000  0.320000  0.040000    0.00006400 263 t-inv F
  0.480000  0.320000  0.040000    0.00006400 264 t-inv F
 -0.480000  0.320000  0.040000    0.00006400 265 t-inv F
 -0.440000  0.320000  0.040000    0.00006400 266 t-inv F
 -0.400000  0.320000  0.040000    0.00006400 267 t-inv F
 -0.360000  0.320000  0.040000    0.00006400 268 t-inv F
 -0.320000  0.320000  0.040000    0.00006400 269 t-inv F
 -0.280000  0.320000  0.040000    0.00006400 270 t-inv F
  0.400000  0.360000  0.040000    0.00006400 271 t-inv F
  0.440000  0.360000  0.040000    0.00006400 272 t-inv F
  0.480000  0.360000  0.040000    0.00006400 273 t-inv F
 -0.480000  0.360000  0.040000    0.00006400 274 t-inv F
 -0.440000  0.360000  0.040000    0.00006400 275 t-inv F
 -0.400000  0.360000  0.040000    0.00006400 276 t-inv F
 -0.360000  0.360000  0.040000    0.00006400 277 t-inv F
 -0.320000  0.360000  0.040000    0.00006400 278 t-inv F
  0.440000  0.400000  0.040000    0.00006400 279 t-inv F
  0.480000  0.400000  0.040000    0.00006400 280 t-inv F
 -0.480000  0.400000  0.040000    0.00006400 281 t-inv F
 -0.440000  0.400000  0.040000    0.00006400 282 t-inv F
 -0.400000  0.400000  0.040000    0.00006400 283 t-inv F
 -0.360000  0.400000  0.040000    0.00006400 284 t-inv F
  0.480000  0.440000  0.040000    0.00006400 285 t-inv F
 -0.480000  0.440000  0.040000    0.00006400 286 t-inv F
 -0.440000  0.440000  0.040000    0.00006400 287 t-inv F
 -0.400000  0.440000  0.040000    0.00006400 288 t-inv F
 -0.480000  0.480000  0.040000    0.00006400 289 t-inv F
 -0.440000  0.480000  0.040000    0.00006400 290 t-inv F
  0.240000  0.160000  0.080000    0.00006400 291 t-inv F
  0.280000  0.160000  0.080000    0.00006400 292 t-inv F
  0.320000  0.160000  0.080000    0.00006400 293 t-inv F
  0.360000  0.160000  0.080000    0.00006400 294 t-inv F
  0.400000  0.160000  0.080000    0.00006400 295 t-inv F
  0.440000  0.160000  0.080000    0.00006400 296 t-inv F
  0.480000  0.160000  0.080000    0.00006400 297 t-inv F
 -0.480000  0.160000  0.080000    0.00006400 298 t-inv F
 -0.440000  0.160000  0.080000    0.00006400 299 t-inv F
  0.280000  0.200000  0.080000    0.00006400 300 t-inv F
  0.320000  0.200000  0.080000    0.00006400 301 t-inv F
  0.360000  0.200000  0.080000    0.00006400 302 t-inv F
  0.400000  0.200000  0.080000    0.00006400 303 t-inv F
  0.440000  0.200000  0.080000    0.00006400 304 t-inv F
  0.480000  0.200000  0.080000    0.00006400 305 t-inv F
 -0.480000  0.200000  0.080000    0.00006400 306 t-inv F
 -0.440000  0.200000  0.080000    0.00006400 307 t-inv F
 -0.400000  0.200000  0.080000    0.00006400 308 t-inv F
 -0.360000  0.200000  0.080000    0.00006400 309 t-inv F
 -0.320000  0.200000  0.080000    0.00006400 310 t-inv F
 -0.280000  0.200000  0.080000    0.00006400 311 t-inv F
 -0.240000  0.200000  0.080000    0.00006400 312 t-inv F
 -0.200000  0.200000  0.080000    0.00006400 313 t-inv F
 -0.160000  0.200000  0.080000    0.00006400 314 t-inv F
 -0.120000  0.200000  0.080000    0.00006400 315 t-inv F
  0.320000  0.240000  0.080000    0.00006400 316 t-inv F
  0.360000  0.240000  0.080000    0.00006400 317 t-inv F
  0.400000  0.240000  0.080000    0.00006400 318 t-inv F
  0.440000  0.240000  0.080000    0.00006400 319 t-inv F
  0.480000  0.240000  0.080000    0.00006400 320 t-inv F
 -0.480000  0.240000  0.080000    0.00006400 321 t-inv F
 -0.440000  0.240000  0.080000    0.00006400 322 t-inv F
 -0.400000  0.240000  0.080000    0.00006400 323 t-inv F
 -0.360000  0.240000  0.080000    0.00006400 324 t-inv F
 -0.320000  0.240000  0.080000    0.00006400 325 t-inv F
 -0.280000  0.240000  0.080000    0.00006400 326 t-inv F
 -0.240000  0.240000  0.080000    0.00006400 327 t-inv F
 -0.200000  0.240000  0.080000    0.00006400 328 t-inv F
 -0.160000  0.240000  0.080000    0.00006400 329 t-inv F
  0.360000  0.280000  0.080000    0.00006400 330 t-inv F
  0.400000  0.280000  0.080000    0.00006400 331 t-inv F
  0.440000  0.280000  0.080000    0.00006400 332 t-inv F
  0.480000  0.280000  0.080000    0.00006400 333 t-inv F
 -0.480000  0.280000  0.080000    0.00006400 334 t-inv F
 -0.440000  0.280000  0.080000    0.00006400 335 t-inv F
 -0.400000  0.280000  0.080000    0.00006400 336 t-inv F
 -0.360000  0.280000  0.080000    0.00006400 337 t-inv F
 -0.320000  0.280000  0.080000    0.00006400 338 t-inv F
 -0.280000  0.280000  0.080000    0.00006400 339 t-inv F
 -0.240000  0.280000  0.080000    0.00006400 340 t-inv F
 -0.200000  0.280000  0.080000    0.00006400 341 t-inv F
  0.400000  0.320000  0.080000    0.00006400 342 t-inv F
  0.440000  0.320000  0.080000    0.00006400 343 t-inv F
  0.480000  0.320000  0.080000    0.00006400 344 t-inv F
 -0.480000  0.320000  0.080000    0.00006400 345 t-inv F
 -0.440000  0.320000  0.080000    0.00006400 346 t-inv F
 -0.400000  0.320000  0.080000    0.00006400 347 t-inv F
 -0.360000  0.320000  0.080000    0.00006400 348 t-inv F
 -0.320000  0.320000  0.080000    0.00006400 349 t-inv F
 -0.280000  0.320000  0.080000    0.00006400 350 t-inv F
 -0.240000  0.320000  0.080000    0.00006400 351 t-inv F
  0.440000  0.360000  0.080000    0.00006400 352 t-inv F
  0.480000  0.360000  0.080000    0.00006400 353 t-inv F
 -0.480000  0.360000  0.080000    0.00006400 354 t-inv F
 -0.440000  0.360000  0.080000    0.00006400 355 t-inv F
 -0.400000  0.360000  0.080000    0.00006400 356 t-inv F
 -0.360000  0.360000  0.080000    0.00006400 357 t-inv F
 -0.320000  0.360000  0.080000    0.00006400 358 t-inv F
 -0.280000  0.360000  0.080000    0.00006400 359 t-inv F
  0.480000  0.400000  0.080000    0.00006400 360 t-inv F
 -0.480000  0.400000  0.080000    0.00006400 361 t-inv F
 -0.440000  0.400000  0.080000    0.00006400 362 t-inv F
 -0.400000  0.400000  0.080000    0.00006400 363 t-inv F
 -0.360000  0.400000  0.080000    0.00006400 364 t-inv F
 -0.320000  0.400000  0.080000    0.00006400 365 t-inv F
 -0.480000  0.440000  0.080000    0.00006400 366 t-inv F
 -0.440000  0.440000  0.080000    0.00006400 367 t-inv F
 -0.400000  0.440000  0.080000    0.00006400 368 t-inv F
 -0.360000  0.440000  0.080000    0.00006400 369 t-inv F
 -0.440000  0.480000  0.080000    0.00006400 370 t-inv F
 -0.400000  0.480000  0.080000    0.00006400 371 t-inv F
  0.360000  0.240000  0.120000    0.00006400 372 t-inv F
  0.400000  0.240000  0.120000    0.00006400 373 t-inv F
  0.440000  0.240000  0.120000    0.00006400 374 t-inv F
  0.480000  0.240000  0.120000    0.00006400 375 t-inv F
 -0.480000  0.240000  0.120000    0.00006400 376 t-inv F
 -0.440000  0.240000  0.120000    0.00006400 377 t-inv F
 -0.400000  0.240000  0.120000    0.00006400 378 t-inv F
  0.400000  0.280000  0.120000    0.00006400 379 t-inv F
  0.440000  0.280000  0.120000    0.00006400 380 t-inv F
  0.480000  0.280000  0.120000    0.00006400 381 t-inv F
 -0.480000  0.280000  0.120000    0.00006400 382 t-inv F
 -0.440000  0.280000  0.120000    0.00006400 383 t-inv F
 -0.400000  0.280000  0.120000    0.00006400 384 t-inv F
 -0.360000  0.280000  0.120000    0.00006400 385 t-inv F
 -0.320000  0.280000  0.120000    0.00006400 386 t-inv F
 -0.280000  0.280000  0.120000    0.00006400 387 t-inv F
 -0.240000  0.280000  0.120000    0.00006400 388 t-inv F
 -0.200000  0.280000  0.120000    0.00006400 389 t-inv F
 -0.160000  0.280000  0.120000    0.00006400 390 t-inv F
  0.440000  0.320000  0.120000    0.00006400 391 t-inv F
  0.480000  0.320000  0.120000    0.00006400 392 t-inv F
 -0.480000  0.320000  0.120000    0.00006400 393 t-inv F
 -0.440000  0.320000  0.120000    0.00006400 394 t-inv F
 -0.400000  0.320000  0.120000    0.00006400 395 t-inv F
 -0.360000  0.320000  0.120000    0.00006400 396 t-inv F
 -0.320000  0.320000  0.120000    0.00006400 397 t-inv F
 -0.280000  0.320000  0.120000    0.00006400 398 t-inv F
 -0.240000  0.320000  0.120000    0.00006400 399 t-inv F
 -0.200000  0.320000  0.120000    0.00006400 400 t-inv F
  0.480000  0.360000  0.120000    0.00006400 401 t-inv F
 -0.480000  0.360000  0.120000    0.00006400 402 t-inv F
 -0.440000  0.360000  0.120000    0.00006400 403 t-inv F
 -0.400000  0.360000  0.120000    0.00006400 404 t-inv F
 -0.360000  0.360000  0.120000    0.00006400 405 t-inv F
 -0.320000  0.360000  0.120000    0.00006400 406 t-inv F
 -0.280000  0.360000  0.120000    0.00006400 407 t-inv F
 -0.240000  0.360000  0.120000    0.00006400 408 t-inv F
 -0.480000  0.400000  0.120000    0.00006400 409 t-inv F
 -0.440000  0.400000  0.120000    0.00006400 410 t-inv F
 -0.400000  0.400000  0.120000    0.00006400 411 t-inv F
 -0.360000  0.400000  0.120000    0.00006400 412 t-inv F
 -0.320000  0.400000  0.120000    0.00006400 413 t-inv F
 -0.280000  0.400000  0.120000    0.00006400 414 t-inv F
 -0.440000  0.440000  0.120000    0.00006400 415 t-inv F
 -0.400000  0.440000  0.120000    0.00006400 416 t-inv F
 -0.360000  0.440000  0.120000    0.00006400 417 t-inv F
 -0.320000  0.440000  0.120000    0.00006400 418 t-inv F
 -0.400000  0.480000  0.120000    0.00006400 419 t-inv F
 -0.360000  0.480000  0.120000    0.00006400 420 t-inv F
  0.480000  0.320000  0.160000    0.00006400 421 t-inv F
 -0.480000  0.320000  0.160000    0.00006400 422 t-inv F
 -0.440000  0.320000  0.160000    0.00006400 423 t-inv F
 -0.400000  0.320000  0.160000    0.00006400 424 t-inv F
 -0.360000  0.320000  0.160000    0.00006400 425 t-inv F
 -0.480000  0.360000  0.160000    0.00006400 426 t-inv F
 -0.440000  0.360000  0.160000    0.00006400 427 t-inv F
 -0.400000  0.360000  0.160000    0.00006400 428 t-inv F
 -0.360000  0.360000  0.160000    0.00006400 429 t-inv F
 -0.320000  0.360000  0.160000    0.00006400 430 t-inv F
 -0.280000  0.360000  0.160000    0.00006400 431 t-inv F
 -0.240000  0.360000  0.160000    0.00006400 432 t-inv F
 -0.200000  0.360000  0.160000    0.00006400 433 t-inv F
 -0.440000  0.400000  0.160000    0.00006400 434 t-inv F
 -0.400000  0.400000  0.160000    0.00006400 435 t-inv F
 -0.360000  0.400000  0.160000    0.00006400 436 t-inv F
 -0.320000  0.400000  0.160000    0.00006400 437 t-inv F
 -0.280000  0.400000  0.160000    0.00006400 438 t-inv F
 -0.240000  0.400000  0.160000    0.00006400 439 t-inv F
 -0.400000  0.440000  0.160000    0.00006400 440 t-inv F
 -0.360000  0.440000  0.160000    0.00006400 441 t-inv F
 -0.320000  0.440000  0.160000    0.00006400 442 t-inv F
 -0.280000  0.440000  0.160000    0.00006400 443 t-inv F
 -0.360000  0.480000  0.160000    0.00006400 444 t-inv F
 -0.320000  0.480000  0.160000    0.00006400 445 t-inv F
 -0.400000  0.400000  0.200000    0.00006400 446 t-inv F
 -0.360000  0.400000  0.200000    0.00006400 447 t-inv F
 -0.320000  0.400000  0.200000    0.00006400 448 t-inv F
 -0.360000  0.440000  0.200000    0.00006400 449 t-inv F
 -0.320000  0.440000  0.200000    0.00006400 450 t-inv F
 -0.280000  0.440000  0.200000    0.00006400 451 t-inv F
 -0.240000  0.440000  0.200000    0.00006400 452 t-inv F
 -0.320000  0.480000  0.200000    0.00006400 453 t-inv F
 -0.280000  0.480000  0.200000    0.00006400 454 t-inv F
 -0.280000  0.480000  0.240000    0.00006400 455 t-inv F
 -0.040000  0.000000  0.000000    0.00006400   2 t-inv F
  0.000000  0.040000  0.000000    0.00006400   2 t-inv F
  0.000000 -0.040000  0.000000    0.00006400   2 t-inv F
  0.000000  0.000000  0.040000    0.00006400   2 t-inv F
  0.000000  0.000000 -0.040000    0.00006400   2 t-inv F
  0.040000  0.040000  0.040000    0.00006400   2 t-inv F
 -0.040000 -0.040000 -0.040000    0.00006400   2 t-inv F
 -0.080000  0.000000  0.000000    0.00006400   3 t-inv F
  0.000000  0.080000  0.000000    0.00006400   3 t-inv F
  0.000000 -0.080000  0.000000    0.00006400   3 t-inv F
  0.000000  0.000000  0.080000    0.00006400   3 t-inv F
  0.000000  0.000000 -0.080000    0.00006400   3 t-inv F
  0.080000  0.080000  0.080000    0.00006400   3 t-inv F
 -0.080000 -0.080000 -0.080000    0.00006400   3 t-inv F
 -0.120000  0.000000  0.000000    0.00006400   4 t-inv F
  0.000000  0.120000  0.000000    0.00006400   4 t-inv F
  0.000000 -0.120000  0.000000    0.00006400   4 t-inv F
  0.000000  0.000000  0.120000    0.00006400   4 t-inv F
[...]
      1     -15.8282      2.00000
      2      -2.3513      2.00000
      3      -0.8018      2.00000
      4       0.3115      2.00000
      5      14.5873      0.00000
      6      15.7947      0.00000
      7      17.4775      0.00000
      8      21.4109      0.00000
      9      24.7032      0.00000

 k-point   424 :      -0.4000    0.3200    0.1600
  band No.  band energies     occupation 
      1     -15.7688      2.00000
      2      -2.3824      2.00000
      3      -0.9533      2.00000
      4       0.2464      2.00000
      5      14.6478      0.00000
      6      16.1537      0.00000
      7      17.2791      0.00000
      8      21.2156      0.00000
      9      25.0150      0.00000

 k-point   425 :      -0.3600    0.3200    0.1600
  band No.  band energies     occupation 
      1     -15.7380      2.00000
      2      -2.3959      2.00000
      3      -1.0342      2.00000
      4       0.2122      2.00000
      5      14.6691      0.00000
      6      16.3744      0.00000
      7      17.1792      0.00000
      8      21.0942      0.00000
      9      25.1579      0.00000

 k-point   426 :      -0.4800    0.3600    0.1600
  band No.  band energies     occupation 
      1     -15.8776      2.00000
      2      -2.3184      2.00000
      3      -0.5309      2.00000
      4       0.2581      2.00000
      5      14.6756      0.00000
      6      15.0414      0.00000
      7      17.5684      0.00000
      8      21.6892      0.00000
      9      24.1460      0.00000

 k-point   427 :      -0.4400    0.3600    0.1600
  band No.  band energies     occupation 
      1     -15.7998      2.00000
      2      -2.3158      2.00000
      3      -0.7780      2.00000
      4       0.1581      2.00000
      5      14.8952      0.00000
      6      15.3758      0.00000
      7      17.2776      0.00000
      8      21.3973      0.00000
      9      24.5817      0.00000

 k-point   428 :      -0.4000    0.3600    0.1600
  band No.  band energies     occupation 
      1     -15.7407      2.00000
      2      -2.2766      2.00000
      3      -1.0061      2.00000
      4       0.0868      2.00000
      5      14.9640      0.00000
      6      15.8441      0.00000
      7      17.0520      0.00000
      8      21.1028      0.00000
      9      24.9429      0.00000

 k-point   429 :      -0.3600    0.3600    0.1600
  band No.  band energies     occupation 
      1     -15.7060      2.00000
      2      -2.2172      2.00000
      3      -1.1924      2.00000
      4       0.0531      2.00000
      5      15.0276      0.00000
      6      16.1823      0.00000
      7      16.9177      0.00000
      8      20.8713      0.00000
      9      25.2139      0.00000

 k-point   430 :      -0.3200    0.3600    0.1600
  band No.  band energies     occupation 
      1     -15.6974      2.00000
      2      -2.1680      2.00000
      3      -1.2934      2.00000
      4       0.0600      2.00000
      5      15.0847      0.00000
      6      16.2723      0.00000
      7      16.9035      0.00000
      8      20.7880      0.00000
      9      25.4266      0.00000

 k-point   431 :      -0.2800    0.3600    0.1600
  band No.  band energies     occupation 
      1     -15.7168      2.00000
      2      -2.1700      2.00000
      3      -1.2658      2.00000
      4       0.1044      2.00000
      5      15.1128      0.00000
      6      16.1116      0.00000
      7      16.9817      0.00000
      8      20.8855      0.00000
      9      25.5543      0.00000

 k-point   432 :      -0.2400    0.3600    0.1600
  band No.  band energies     occupation 
      1     -15.7617      2.00000
      2      -2.2171      2.00000
      3      -1.1127      2.00000
      4       0.1827      2.00000
      5      15.0800      0.00000
      6      15.7925      0.00000
      7      17.1512      0.00000
      8      21.1116      0.00000
      9      25.3290      0.00000

 k-point   433 :      -0.2000    0.3600    0.1600
  band No.  band energies     occupation 
      1     -15.8278      2.00000
      2      -2.2684      2.00000
      3      -0.8764      2.00000
      4       0.2860      2.00000
      5      14.8718      0.00000
      6      15.5226      0.00000
      7      17.4172      0.00000
      8      21.3807      0.00000
      9      24.8175      0.00000

 k-point   434 :      -0.4400    0.4000    0.1600
  band No.  band energies     occupation 
      1     -15.7698      2.00000
      2      -2.3602      2.00000
      3      -0.6743      2.00000
      4       0.0334      2.00000
      5      14.8418      0.00000
      6      15.1726      0.00000
      7      17.1827      0.00000
      8      21.5112      0.00000
      9      24.4424      0.00000

 k-point   435 :      -0.4000    0.4000    0.1600
  band No.  band energies     occupation 
      1     -15.7158      2.00000
      2      -2.2824      2.00000
      3      -0.9220      2.00000
      4      -0.0568      2.00000
      5      14.9834      0.00000
      6      15.6260      0.00000
      7      16.9501      0.00000
      8      21.1224      0.00000
      9      24.8232      0.00000

 k-point   436 :      -0.3600    0.4000    0.1600
  band No.  band energies     occupation 
      1     -15.6804      2.00000
      2      -2.1576      2.00000
      3      -1.1853      2.00000
      4      -0.0950      2.00000
      5      15.1164      0.00000
      6      16.0610      0.00000
      7      16.7590      0.00000
      8      20.7767      0.00000
      9      25.1289      0.00000

 k-point   437 :      -0.3200    0.4000    0.1600
  band No.  band energies     occupation 
      1     -15.6684      2.00000
      2      -2.0047      2.00000
      3      -1.4341      2.00000
      4      -0.0836      2.00000
      5      15.2562      0.00000
      6      16.2835      0.00000
      7      16.6679      0.00000
      8      20.5707      0.00000
      9      25.3874      0.00000

 k-point   438 :      -0.2800    0.4000    0.1600
  band No.  band energies     occupation 
      1     -15.6781      2.00000
      2      -1.9184      2.00000
      3      -1.5531      2.00000
      4      -0.0265      2.00000
      5      15.3732      0.00000
      6      16.1608      0.00000
      7      16.7623      0.00000
      8      20.5874      0.00000
      9      25.6618      0.00000

 k-point   439 :      -0.2400    0.4000    0.1600
  band No.  band energies     occupation 
      1     -15.7105      2.00000
      2      -2.0492      2.00000
      3      -1.3883      2.00000
      4       0.0660      2.00000
      5      15.3730      0.00000
      6      15.9113      0.00000
      7      16.9154      0.00000
      8      20.8029      0.00000
      9      25.9955      0.00000

 k-point   440 :      -0.4000    0.4400    0.1600
  band No.  band energies     occupation 
      1     -15.6942      2.00000
      2      -2.3616      2.00000
      3      -0.7720      2.00000
      4      -0.1441      2.00000
      5      14.7051      0.00000
      6      15.4835      0.00000
      7      17.0152      0.00000
      8      21.3125      0.00000
      9      24.6495      0.00000

 k-point   441 :      -0.3600    0.4400    0.1600
  band No.  band energies     occupation 
      1     -15.6634      2.00000
      2      -2.2312      2.00000
      3      -1.0193      2.00000
      4      -0.2077      2.00000
      5      14.9326      0.00000
      6      15.8688      0.00000
      7      16.8256      0.00000
      8      20.8781      0.00000
      9      24.9749      0.00000

 k-point   442 :      -0.3200    0.4400    0.1600
  band No.  band energies     occupation 
      1     -15.6506      2.00000
      2      -2.0547      2.00000
      3      -1.3099      2.00000
      4      -0.1983      2.00000
      5      15.1439      0.00000
      6      16.2478      0.00000
      7      16.6187      0.00000
      8      20.5567      0.00000
      9      25.2311      0.00000

 k-point   443 :      -0.2800    0.4400    0.1600
  band No.  band energies     occupation 
      1     -15.6557      2.00000
      2      -1.8424      2.00000
      3      -1.6027      2.00000
      4      -0.1328      2.00000
      5      15.3254      0.00000
      6      16.3738      0.00000
      7      16.5500      0.00000
      8      20.4495      0.00000
      9      25.4569      0.00000

 k-point   444 :      -0.3600    0.4800    0.1600
  band No.  band energies     occupation 
      1     -15.6549      2.00000
      2      -2.3505      2.00000
      3      -0.8212      2.00000
      4      -0.2441      2.00000
      5      14.6358      0.00000
      6      15.5961      0.00000
      7      17.0096      0.00000
      8      21.1748      0.00000
      9      24.7570      0.00000

 k-point   445 :      -0.3200    0.4800    0.1600
  band No.  band energies     occupation 
      1     -15.6460      2.00000
      2      -2.2077      2.00000
      3      -1.0544      2.00000
      4      -0.2629      2.00000
      5      14.9101      0.00000
      6      15.9326      0.00000
      7      16.8195      0.00000
      8      20.7766      0.00000
      9      25.0279      0.00000

 k-point   446 :      -0.4000    0.4000    0.2000
  band No.  band energies     occupation 
      1     -15.7378      2.00000
      2      -2.2206      2.00000
      3      -1.0314      2.00000
      4       0.0331      2.00000
      5      15.3902      0.00000
      6      15.4312      0.00000
      7      17.0018      0.00000
      8      21.0252      0.00000
      9      25.1178      0.00000

 k-point   447 :      -0.3600    0.4000    0.2000
  band No.  band energies     occupation 
      1     -15.6939      2.00000
      2      -2.0965      2.00000
      3      -1.2629      2.00000
      4      -0.0623      2.00000
      5      15.4502      0.00000
      6      15.8538      0.00000
      7      16.8066      0.00000
      8      20.6731      0.00000
      9      25.5827      0.00000

 k-point   448 :      -0.3200    0.4000    0.2000
  band No.  band energies     occupation 
      1     -15.6707      2.00000
      2      -1.9823      2.00000
      3      -1.4303      2.00000
      4      -0.1136      2.00000
      5      15.4872      0.00000
      6      16.0976      0.00000
      7      16.7238      0.00000
      8      20.4462      0.00000
      9      25.8876      0.00000

 k-point   449 :      -0.3600    0.4400    0.2000
  band No.  band energies     occupation 
      1     -15.6764      2.00000
      2      -2.1416      2.00000
      3      -1.1378      2.00000
      4      -0.1871      2.00000
      5      15.2961      0.00000
      6      15.8906      0.00000
      7      16.7245      0.00000
      8      20.6629      0.00000
      9      25.3200      0.00000

 k-point   450 :      -0.3200    0.4400    0.2000
  band No.  band energies     occupation 
      1     -15.6522      2.00000
      2      -1.9650      2.00000
      3      -1.3693      2.00000
      4      -0.2547      2.00000
      5      15.5191      0.00000
      6      16.1507      0.00000
      7      16.5682      0.00000
      8      20.3027      0.00000
      9      25.7457      0.00000

 k-point   451 :      -0.2800    0.4400    0.2000
  band No.  band energies     occupation 
      1     -15.6476      2.00000
      2      -1.7834      2.00000
      3      -1.5910      2.00000
      4      -0.2509      2.00000
      5      15.6933      0.00000
      6      16.1175      0.00000
      7      16.5890      0.00000
      8      20.1657      0.00000
      9      26.1021      0.00000

 k-point   452 :      -0.2400    0.4400    0.2000
  band No.  band energies     occupation 
      1     -15.6618      2.00000
      2      -1.8850      2.00000
      3      -1.5011      2.00000
      4      -0.1819      2.00000
      5      15.8020      0.00000
      6      15.8670      0.00000
      7      16.6638      0.00000
      8      20.3162      0.00000
      9      26.2006      0.00000

 k-point   453 :      -0.3200    0.4800    0.2000
  band No.  band energies     occupation 
      1     -15.6438      2.00000
      2      -2.0776      2.00000
      3      -1.1903      2.00000
      4      -0.3197      2.00000
      5      15.2488      0.00000
      6      16.1403      0.00000
      7      16.6186      0.00000
      8      20.4227      0.00000
      9      25.4264      0.00000

 k-point   454 :      -0.2800    0.4800    0.2000
  band No.  band energies     occupation 
      1     -15.6388      2.00000
      2      -1.9025      2.00000
      3      -1.4139      2.00000
      4      -0.3311      2.00000
      5      15.5172      0.00000
      6      16.3751      0.00000
      7      16.4055      0.00000
      8      20.1526      0.00000
      9      25.7993      0.00000

 k-point   455 :      -0.2800    0.4800    0.2400
  band No.  band energies     occupation 
      1     -15.6377      2.00000
      2      -1.7607      2.00000
      3      -1.5583      2.00000
      4      -0.3499      2.00000
      5      15.8426      0.00000
      6      16.0774      0.00000
      7      16.5275      0.00000
      8      20.0032      0.00000
      9      26.3020      0.00000


--------------------------------------------------------------------------------------------------------


 soft charge-density along one line, spin component           1
         0         1         2         3         4         5         6         7         8         9
 total charge-density along one line
 
 pseudopotential strength for first ion, spin component:           1
  2.844   9.045  -0.000   0.000  -0.000  -0.000   0.000  -0.000
  9.045  28.488  -0.000   0.000  -0.000  -0.000   0.000  -0.000
 -0.000  -0.000   7.211   0.000   0.000  10.422   0.000   0.000
  0.000   0.000   0.000   7.211   0.000   0.000  10.422   0.000
 -0.000  -0.000   0.000   0.000   7.211   0.000   0.000  10.422
 -0.000  -0.000  10.422   0.000   0.000  14.191   0.000   0.000
  0.000   0.000   0.000  10.422   0.000   0.000  14.191   0.000
 -0.000  -0.000   0.000   0.000  10.422   0.000   0.000  14.191
  0.000   0.000   0.000   0.000   0.000  -0.000   0.000   0.000
  0.000   0.000   0.000   0.000   0.000   0.000   0.000   0.000
  0.000   0.000  -0.000   0.000  -0.000   0.000   0.000  -0.000
  0.000   0.000   0.000   0.000   0.000   0.000  -0.000   0.000
  0.000   0.000  -0.000  -0.000   0.000   0.000  -0.000   0.000
 total augmentation occupancy for first ion, spin component:           1
  1.164  -0.092  -0.000   0.000  -0.000   0.000  -0.000  -0.000   0.000  -0.000  -0.000   0.000   0.000
 -0.092   0.008   0.000  -0.000   0.000  -0.000   0.000   0.000  -0.000   0.000  -0.000  -0.000   0.000
 -0.000   0.000   0.141   0.000  -0.000  -0.024  -0.000   0.000   0.000  -0.000  -0.000   0.000  -0.000
  0.000  -0.000   0.000   0.141  -0.000  -0.000  -0.024  -0.000   0.000   0.000   0.000  -0.000   0.000
 -0.000   0.000  -0.000  -0.000   0.141   0.000   0.000  -0.024  -0.000  -0.000   0.000   0.000   0.000
  0.000  -0.000  -0.024  -0.000   0.000   0.004   0.000  -0.000  -0.000   0.000   0.000  -0.000   0.000
 -0.000   0.000  -0.000  -0.024   0.000   0.000   0.004  -0.000  -0.000  -0.000  -0.000   0.000  -0.000
 -0.000   0.000   0.000  -0.000  -0.024  -0.000  -0.000   0.004   0.000   0.000  -0.000  -0.000  -0.000
  0.000  -0.000   0.000   0.000  -0.000  -0.000  -0.000   0.000   0.012  -0.000  -0.000   0.000  -0.000
 -0.000   0.000  -0.000   0.000  -0.000   0.000  -0.000   0.000  -0.000   0.012  -0.000  -0.000   0.000
 -0.000  -0.000  -0.000   0.000   0.000   0.000  -0.000  -0.000  -0.000  -0.000   0.052  -0.000   0.000
  0.000  -0.000   0.000  -0.000   0.000  -0.000   0.000  -0.000   0.000  -0.000  -0.000   0.012   0.000
  0.000   0.000  -0.000   0.000   0.000   0.000  -0.000  -0.000  -0.000   0.000   0.000   0.000   0.052


------------------------ aborting loop because EDIFF is reached ----------------------------------------


    CHARGE:  cpu time    0.8391: real time    0.8391
    FORLOC:  cpu time    0.0003: real time    0.0003
    FORHF :  cpu time 8957.9568: real time 8958.0995
    FORNL :  cpu time    0.0180: real time    0.0180
    FORCOR:  cpu time    0.0068: real time    0.0072
    FORHAR:  cpu time    0.0008: real time    0.0008
    MIXING:  cpu time    0.0001: real time    0.0001
    OFIELD:  cpu time    0.0000: real time    0.0000

 VOLUME and BASIS-vectors are now :
 -----------------------------------------------------------------------------
  energy-cutoff  :      400.00
  volume of cell :       18.69
      direct lattice vectors                 reciprocal lattice vectors
     2.106350000  2.106350000  0.000000000     0.237377454  0.237377454 -0.237377454
     0.000000000  2.106350000  2.106350000    -0.237377454  0.237377454  0.237377454
     2.106350000  0.000000000  2.106350000     0.237377454 -0.237377454  0.237377454

  length of vectors
     2.978828737  2.978828737  2.978828737     0.411149811  0.411149811  0.411149811


 FORCES acting on ions
    electron-ion (+dipol)            ewald-force                    non-local-force                 convergence-correction
 -----------------------------------------------------------------------------------------------
   -.852E-14 -.116E-12 0.216E-13   -.840E-15 -.574E-15 -.176E-15   0.258E-25 0.258E-25 0.258E-25   -.172E-11 0.745E-11 0.127E-11
   0.425E-12 0.151E-11 0.585E-12   -.429E-15 0.277E-15 0.270E-15   -.103E-24 -.246E-24 0.000E+00   0.428E-09 -.767E-09 0.289E-09
 -----------------------------------------------------------------------------------------------
   0.417E-12 0.139E-11 0.606E-12   -.127E-14 -.297E-15 0.943E-16   -.775E-25 -.220E-24 0.258E-25   0.427E-09 -.759E-09 0.291E-09
 
 
 POSITION                                       TOTAL-FORCE (eV/Angst)
 -----------------------------------------------------------------------------------
      0.00000      0.00000      0.00000        -0.000000      0.000000      0.000000
      2.10635      2.10635      2.10635         0.000000     -0.000000     -0.000000
 -----------------------------------------------------------------------------------
    total drift:                                0.000000     -0.000000      0.000000


--------------------------------------------------------------------------------------------------------



  FREE ENERGIE OF THE ION-ELECTRON SYSTEM (eV)
  ---------------------------------------------------
  free  energy   TOTEN  =       -14.81444639 eV

  energy  without entropy=      -14.81444639  energy(sigma->0) =      -14.81444639
 


--------------------------------------------------------------------------------------------------------


    POTLOK:  cpu time    0.0069: real time    0.0069


--------------------------------------------------------------------------------------------------------


     LOOP+:  cpu time**********: real time**********
    4ORBIT:  cpu time    0.0000: real time    0.0000
 BZINTS: Fermi energy:  1.551350;  8.000000 electrons
         Band energy: -35.622779;  BLOECHL correction:  0.000000

 total amount of memory used by VASP on root node    46281. kBytes
========================================================================

   base      :      30000. kBytes
   nonl-proj :      11928. kBytes
   fftplans  :        333. kBytes
   grid      :        452. kBytes
   one-center:          8. kBytes
   HF        :         33. kBytes
   nonlr-proj:        448. kBytes
   wavefun   :       3079. kBytes
 
  
  
 General timing and accounting informations for this job:
 ========================================================
  
                  Total CPU time used (sec):   211763.750
                            User time (sec):   206685.195
                          System time (sec):     5078.561
                         Elapsed time (sec):   211804.188
  
                   Maximum memory used (kb):      305964.
                   Average memory used (kb):           0.
  
                          Minor page faults:       149910
                          Major page faults:           18
                 Voluntary context switches:         1846
