<?xml version="1.0" encoding="ISO-8859-1"?>
<modeling>
 <generator>
  <i name="program" type="string">vasp </i>
  <i name="version" type="string">5.4.1  </i>
  <i name="subversion" type="string">24Jun15 (build Dec 08 2018 00:28:02) complex                          parallel </i>
  <i name="platform" type="string">pkvasp5.4.1 </i>
  <i name="date" type="string">2023 10 04 </i>
  <i name="time" type="string">15:54:15 </i>
 </generator>
 <incar>
  <i type="string" name="SYSTEM"> Mg1O1</i>
  <i type="int" name="ISTART">     1</i>
  <i type="string" name="PREC">acc</i>
  <i type="string" name="ALGO"> Normal</i>
  <i type="int" name="NSIM">     4</i>
  <i type="int" name="NELM">    40</i>
  <i type="int" name="IBRION">     2</i>
  <i name="EDIFF">      0.00000100</i>
  <i type="int" name="NSW">     0</i>
  <i type="int" name="ISIF">     0</i>
  <i name="POTIM">      0.25000000</i>
  <i type="int" name="NEDOS">  1401</i>
  <i type="logical" name="LREAL"> F  </i>
  <i type="logical" name="LPLANE"> T  </i>
  <i type="int" name="ISMEAR">    -5</i>
  <i name="SIGMA">      0.00000000</i>
  <i type="int" name="NWRITE">     0</i>
  <i type="logical" name="LWAVE"> F  </i>
  <i type="logical" name="LCHARG"> F  </i>
  <v type="int" name="KPOINT_BSE">    -1     0     0     0</v>
  <i type="int" name="NELM">    40</i>
  <i type="logical" name="LHFCALC"> T  </i>
  <i type="string" name="METAGGA"> SCAN</i>
 </incar>
 <kpoints>
  <generation param="Gamma">
   <v type="int" name="divisions">      25       25       25 </v>
   <v name="usershift">      0.00000000       0.00000000       0.00000000 </v>
   <v name="genvec1">      0.04000000       0.00000000       0.00000000 </v>
   <v name="genvec2">      0.00000000       0.04000000       0.00000000 </v>
   <v name="genvec3">      0.00000000       0.00000000       0.04000000 </v>
   <v name="shift">      0.00000000       0.00000000       0.00000000 </v>
  </generation>
  <varray name="kpointlist" >
   <v>       0.00000000       0.00000000       0.00000000 </v>
   <v>       0.04000000       0.00000000       0.00000000 </v>
   <v>       0.08000000       0.00000000       0.00000000 </v>
   <v>       0.12000000       0.00000000       0.00000000 </v>
   <v>       0.16000000       0.00000000       0.00000000 </v>
   <v>       0.20000000       0.00000000       0.00000000 </v>
   <v>       0.24000000       0.00000000       0.00000000 </v>
   <v>       0.28000000       0.00000000       0.00000000 </v>
   <v>       0.32000000       0.00000000       0.00000000 </v>
   <v>       0.36000000       0.00000000       0.00000000 </v>
   <v>       0.40000000       0.00000000       0.00000000 </v>
   <v>       0.44000000       0.00000000       0.00000000 </v>
   <v>       0.48000000       0.00000000       0.00000000 </v>
   <v>       0.04000000       0.04000000       0.00000000 </v>
   <v>       0.08000000       0.04000000       0.00000000 </v>
   <v>       0.12000000       0.04000000       0.00000000 </v>
   <v>       0.16000000       0.04000000       0.00000000 </v>
   <v>       0.20000000       0.04000000       0.00000000 </v>
   <v>       0.24000000       0.04000000       0.00000000 </v>
   <v>       0.28000000       0.04000000       0.00000000 </v>
   <v>       0.32000000       0.04000000       0.00000000 </v>
   <v>       0.36000000       0.04000000       0.00000000 </v>
   <v>       0.40000000       0.04000000       0.00000000 </v>
   <v>       0.44000000       0.04000000       0.00000000 </v>
   <v>       0.48000000       0.04000000       0.00000000 </v>
   <v>      -0.48000000       0.04000000       0.00000000 </v>
   <v>      -0.44000000       0.04000000       0.00000000 </v>
   <v>      -0.40000000       0.04000000       0.00000000 </v>
   <v>      -0.36000000       0.04000000       0.00000000 </v>
   <v>      -0.32000000       0.04000000       0.00000000 </v>
   <v>      -0.28000000       0.04000000       0.00000000 </v>
   <v>      -0.24000000       0.04000000       0.00000000 </v>
   <v>      -0.20000000       0.04000000       0.00000000 </v>
   <v>      -0.16000000       0.04000000       0.00000000 </v>
   <v>      -0.12000000       0.04000000       0.00000000 </v>
   <v>      -0.08000000       0.04000000       0.00000000 </v>
   <v>      -0.04000000       0.04000000       0.00000000 </v>
   <v>       0.08000000       0.08000000       0.00000000 </v>
   <v>       0.12000000       0.08000000       0.00000000 </v>
   <v>       0.16000000       0.08000000       0.00000000 </v>
   <v>       0.20000000       0.08000000       0.00000000 </v>
   <v>       0.24000000       0.08000000       0.00000000 </v>
   <v>       0.28000000       0.08000000       0.00000000 </v>
   <v>       0.32000000       0.08000000       0.00000000 </v>
   <v>       0.36000000       0.08000000       0.00000000 </v>
   <v>       0.40000000       0.08000000       0.00000000 </v>
   <v>       0.44000000       0.08000000       0.00000000 </v>
   <v>       0.48000000       0.08000000       0.00000000 </v>
   <v>      -0.48000000       0.08000000       0.00000000 </v>
   <v>      -0.44000000       0.08000000       0.00000000 </v>
   <v>      -0.40000000       0.08000000       0.00000000 </v>
   <v>      -0.36000000       0.08000000       0.00000000 </v>
   <v>      -0.32000000       0.08000000       0.00000000 </v>
   <v>      -0.28000000       0.08000000       0.00000000 </v>
   <v>      -0.24000000       0.08000000       0.00000000 </v>
   <v>      -0.20000000       0.08000000       0.00000000 </v>
   <v>      -0.16000000       0.08000000       0.00000000 </v>
   <v>      -0.12000000       0.08000000       0.00000000 </v>
   <v>      -0.08000000       0.08000000       0.00000000 </v>
   <v>       0.12000000       0.12000000       0.00000000 </v>
   <v>       0.16000000       0.12000000       0.00000000 </v>
   <v>       0.20000000       0.12000000       0.00000000 </v>
   <v>       0.24000000       0.12000000       0.00000000 </v>
   <v>       0.28000000       0.12000000       0.00000000 </v>
   <v>       0.32000000       0.12000000       0.00000000 </v>
   <v>       0.36000000       0.12000000       0.00000000 </v>
   <v>       0.40000000       0.12000000       0.00000000 </v>
   <v>       0.44000000       0.12000000       0.00000000 </v>
   <v>       0.48000000       0.12000000       0.00000000 </v>
   <v>      -0.48000000       0.12000000       0.00000000 </v>
   <v>      -0.44000000       0.12000000       0.00000000 </v>
   <v>      -0.40000000       0.12000000       0.00000000 </v>
   <v>      -0.36000000       0.12000000       0.00000000 </v>
   <v>      -0.32000000       0.12000000       0.00000000 </v>
   <v>      -0.28000000       0.12000000       0.00000000 </v>
   <v>      -0.24000000       0.12000000       0.00000000 </v>
   <v>      -0.20000000       0.12000000       0.00000000 </v>
   <v>      -0.16000000       0.12000000       0.00000000 </v>
   <v>      -0.12000000       0.12000000       0.00000000 </v>
   <v>       0.16000000       0.16000000       0.00000000 </v>
   <v>       0.20000000       0.16000000       0.00000000 </v>
   <v>       0.24000000       0.16000000       0.00000000 </v>
   <v>       0.28000000       0.16000000       0.00000000 </v>
   <v>       0.32000000       0.16000000       0.00000000 </v>
   <v>       0.36000000       0.16000000       0.00000000 </v>
   <v>       0.40000000       0.16000000       0.00000000 </v>
   <v>       0.44000000       0.16000000       0.00000000 </v>
   <v>       0.48000000       0.16000000       0.00000000 </v>
   <v>      -0.48000000       0.16000000       0.00000000 </v>
   <v>      -0.44000000       0.16000000       0.00000000 </v>
   <v>      -0.40000000       0.16000000       0.00000000 </v>
   <v>      -0.36000000       0.16000000       0.00000000 </v>
   <v>      -0.32000000       0.16000000       0.00000000 </v>
   <v>      -0.28000000       0.16000000       0.00000000 </v>
   <v>      -0.24000000       0.16000000       0.00000000 </v>
   <v>      -0.20000000       0.16000000       0.00000000 </v>
   <v>      -0.16000000       0.16000000       0.00000000 </v>
   <v>       0.20000000       0.20000000       0.00000000 </v>
   <v>       0.24000000       0.20000000       0.00000000 </v>
   <v>       0.28000000       0.20000000       0.00000000 </v>
   <v>       0.32000000       0.20000000       0.00000000 </v>
   <v>       0.36000000       0.20000000       0.00000000 </v>
   <v>       0.40000000       0.20000000       0.00000000 </v>
   <v>       0.44000000       0.20000000       0.00000000 </v>
   <v>       0.48000000       0.20000000       0.00000000 </v>
   <v>      -0.48000000       0.20000000       0.00000000 </v>
   <v>      -0.44000000       0.20000000       0.00000000 </v>
   <v>      -0.40000000       0.20000000       0.00000000 </v>
   <v>      -0.36000000       0.20000000       0.00000000 </v>
   <v>      -0.32000000       0.20000000       0.00000000 </v>
   <v>      -0.28000000       0.20000000       0.00000000 </v>
   <v>      -0.24000000       0.20000000       0.00000000 </v>
   <v>      -0.20000000       0.20000000       0.00000000 </v>
   <v>       0.24000000       0.24000000       0.00000000 </v>
   <v>       0.28000000       0.24000000       0.00000000 </v>
   <v>       0.32000000       0.24000000       0.00000000 </v>
   <v>       0.36000000       0.24000000       0.00000000 </v>
   <v>       0.40000000       0.24000000       0.00000000 </v>
   <v>       0.44000000       0.24000000       0.00000000 </v>
   <v>       0.48000000       0.24000000       0.00000000 </v>
   <v>      -0.48000000       0.24000000       0.00000000 </v>
   <v>      -0.44000000       0.24000000       0.00000000 </v>
   <v>      -0.40000000       0.24000000       0.00000000 </v>
   <v>      -0.36000000       0.24000000       0.00000000 </v>
   <v>      -0.32000000       0.24000000       0.00000000 </v>
   <v>      -0.28000000       0.24000000       0.00000000 </v>
   <v>      -0.24000000       0.24000000       0.00000000 </v>
   <v>       0.28000000       0.28000000       0.00000000 </v>
   <v>       0.32000000       0.28000000       0.00000000 </v>
   <v>       0.36000000       0.28000000       0.00000000 </v>
   <v>       0.40000000       0.28000000       0.00000000 </v>
   <v>       0.44000000       0.28000000       0.00000000 </v>
   <v>       0.48000000       0.28000000       0.00000000 </v>
   <v>      -0.48000000       0.28000000       0.00000000 </v>
   <v>      -0.44000000       0.28000000       0.00000000 </v>
   <v>      -0.40000000       0.28000000       0.00000000 </v>
   <v>      -0.36000000       0.28000000       0.00000000 </v>
   <v>      -0.32000000       0.28000000       0.00000000 </v>
   <v>      -0.28000000       0.28000000       0.00000000 </v>
   <v>       0.32000000       0.32000000       0.00000000 </v>
   <v>       0.36000000       0.32000000       0.00000000 </v>
   <v>       0.40000000       0.32000000       0.00000000 </v>
   <v>       0.44000000       0.32000000       0.00000000 </v>
   <v>       0.48000000       0.32000000       0.00000000 </v>
   <v>      -0.48000000       0.32000000       0.00000000 </v>
   <v>      -0.44000000       0.32000000       0.00000000 </v>
   <v>      -0.40000000       0.32000000       0.00000000 </v>
   <v>      -0.36000000       0.32000000       0.00000000 </v>
   <v>      -0.32000000       0.32000000       0.00000000 </v>
   <v>       0.36000000       0.36000000       0.00000000 </v>
   <v>       0.40000000       0.36000000       0.00000000 </v>
   <v>       0.44000000       0.36000000       0.00000000 </v>
   <v>       0.48000000       0.36000000       0.00000000 </v>
   <v>      -0.48000000       0.36000000       0.00000000 </v>
   <v>      -0.44000000       0.36000000       0.00000000 </v>
   <v>      -0.40000000       0.36000000       0.00000000 </v>
   <v>      -0.36000000       0.36000000       0.00000000 </v>
   <v>       0.40000000       0.40000000       0.00000000 </v>
   <v>       0.44000000       0.40000000       0.00000000 </v>
   <v>       0.48000000       0.40000000       0.00000000 </v>
   <v>      -0.48000000       0.40000000       0.00000000 </v>
   <v>      -0.44000000       0.40000000       0.00000000 </v>
   <v>      -0.40000000       0.40000000       0.00000000 </v>
   <v>       0.44000000       0.44000000       0.00000000 </v>
   <v>       0.48000000       0.44000000       0.00000000 </v>
   <v>      -0.48000000       0.44000000       0.00000000 </v>
   <v>      -0.44000000       0.44000000       0.00000000 </v>
   <v>       0.48000000       0.48000000       0.00000000 </v>
   <v>      -0.48000000       0.48000000       0.00000000 </v>
   <v>       0.12000000       0.08000000       0.04000000 </v>
   <v>       0.16000000       0.08000000       0.04000000 </v>
   <v>       0.20000000       0.08000000       0.04000000 </v>
   <v>       0.24000000       0.08000000       0.04000000 </v>
   <v>       0.28000000       0.08000000       0.04000000 </v>
   <v>       0.32000000       0.08000000       0.04000000 </v>
   <v>       0.36000000       0.08000000       0.04000000 </v>
   <v>       0.40000000       0.08000000       0.04000000 </v>
   <v>       0.44000000       0.08000000       0.04000000 </v>
   <v>       0.48000000       0.08000000       0.04000000 </v>
   <v>      -0.48000000       0.08000000       0.04000000 </v>
   <v>       0.16000000       0.12000000       0.04000000 </v>
   <v>       0.20000000       0.12000000       0.04000000 </v>
   <v>       0.24000000       0.12000000       0.04000000 </v>
   <v>       0.28000000       0.12000000       0.04000000 </v>
   <v>       0.32000000       0.12000000       0.04000000 </v>
   <v>       0.36000000       0.12000000       0.04000000 </v>
   <v>       0.40000000       0.12000000       0.04000000 </v>
   <v>       0.44000000       0.12000000       0.04000000 </v>
   <v>       0.48000000       0.12000000       0.04000000 </v>
   <v>      -0.48000000       0.12000000       0.04000000 </v>
   <v>      -0.44000000       0.12000000       0.04000000 </v>
   <v>      -0.40000000       0.12000000       0.04000000 </v>
   <v>      -0.36000000       0.12000000       0.04000000 </v>
   <v>      -0.32000000       0.12000000       0.04000000 </v>
   <v>      -0.28000000       0.12000000       0.04000000 </v>
   <v>      -0.24000000       0.12000000       0.04000000 </v>
   <v>      -0.20000000       0.12000000       0.04000000 </v>
   <v>      -0.16000000       0.12000000       0.04000000 </v>
   <v>      -0.12000000       0.12000000       0.04000000 </v>
   <v>      -0.08000000       0.12000000       0.04000000 </v>
   <v>       0.20000000       0.16000000       0.04000000 </v>
   <v>       0.24000000       0.16000000       0.04000000 </v>
   <v>       0.28000000       0.16000000       0.04000000 </v>
   <v>       0.32000000       0.16000000       0.04000000 </v>
   <v>       0.36000000       0.16000000       0.04000000 </v>
   <v>       0.40000000       0.16000000       0.04000000 </v>
   <v>       0.44000000       0.16000000       0.04000000 </v>
   <v>       0.48000000       0.16000000       0.04000000 </v>
   <v>      -0.48000000       0.16000000       0.04000000 </v>
   <v>      -0.44000000       0.16000000       0.04000000 </v>
   <v>      -0.40000000       0.16000000       0.04000000 </v>
   <v>      -0.36000000       0.16000000       0.04000000 </v>
   <v>      -0.32000000       0.16000000       0.04000000 </v>
   <v>      -0.28000000       0.16000000       0.04000000 </v>
   <v>      -0.24000000       0.16000000       0.04000000 </v>
   <v>      -0.20000000       0.16000000       0.04000000 </v>
   <v>      -0.16000000       0.16000000       0.04000000 </v>
   <v>      -0.12000000       0.16000000       0.04000000 </v>
   <v>       0.24000000       0.20000000       0.04000000 </v>
   <v>       0.28000000       0.20000000       0.04000000 </v>
   <v>       0.32000000       0.20000000       0.04000000 </v>
   <v>       0.36000000       0.20000000       0.04000000 </v>
   <v>       0.40000000       0.20000000       0.04000000 </v>
   <v>       0.44000000       0.20000000       0.04000000 </v>
   <v>       0.48000000       0.20000000       0.04000000 </v>
   <v>      -0.48000000       0.20000000       0.04000000 </v>
   <v>      -0.44000000       0.20000000       0.04000000 </v>
   <v>      -0.40000000       0.20000000       0.04000000 </v>
   <v>      -0.36000000       0.20000000       0.04000000 </v>
   <v>      -0.32000000       0.20000000       0.04000000 </v>
   <v>      -0.28000000       0.20000000       0.04000000 </v>
   <v>      -0.24000000       0.20000000       0.04000000 </v>
   <v>      -0.20000000       0.20000000       0.04000000 </v>
   <v>      -0.16000000       0.20000000       0.04000000 </v>
   <v>       0.28000000       0.24000000       0.04000000 </v>
   <v>       0.32000000       0.24000000       0.04000000 </v>
   <v>       0.36000000       0.24000000       0.04000000 </v>
   <v>       0.40000000       0.24000000       0.04000000 </v>
   <v>       0.44000000       0.24000000       0.04000000 </v>
   <v>       0.48000000       0.24000000       0.04000000 </v>
   <v>      -0.48000000       0.24000000       0.04000000 </v>
   <v>      -0.44000000       0.24000000       0.04000000 </v>
   <v>      -0.40000000       0.24000000       0.04000000 </v>
   <v>      -0.36000000       0.24000000       0.04000000 </v>
   <v>      -0.32000000       0.24000000       0.04000000 </v>
   <v>      -0.28000000       0.24000000       0.04000000 </v>
   <v>      -0.24000000       0.24000000       0.04000000 </v>
   <v>      -0.20000000       0.24000000       0.04000000 </v>
   <v>       0.32000000       0.28000000       0.04000000 </v>
   <v>       0.36000000       0.28000000       0.04000000 </v>
   <v>       0.40000000       0.28000000       0.04000000 </v>
   <v>       0.44000000       0.28000000       0.04000000 </v>
   <v>       0.48000000       0.28000000       0.04000000 </v>
   <v>      -0.48000000       0.28000000       0.04000000 </v>
   <v>      -0.44000000       0.28000000       0.04000000 </v>
   <v>      -0.40000000       0.28000000       0.04000000 </v>
   <v>      -0.36000000       0.28000000       0.04000000 </v>
   <v>      -0.32000000       0.28000000       0.04000000 </v>
   <v>      -0.28000000       0.28000000       0.04000000 </v>
   <v>      -0.24000000       0.28000000       0.04000000 </v>
   <v>       0.36000000       0.32000000       0.04000000 </v>
   <v>       0.40000000       0.32000000       0.04000000 </v>
   <v>       0.44000000       0.32000000       0.04000000 </v>
   <v>       0.48000000       0.32000000       0.04000000 </v>
   <v>      -0.48000000       0.32000000       0.04000000 </v>
   <v>      -0.44000000       0.32000000       0.04000000 </v>
   <v>      -0.40000000       0.32000000       0.04000000 </v>
   <v>      -0.36000000       0.32000000       0.04000000 </v>
   <v>      -0.32000000       0.32000000       0.04000000 </v>
   <v>      -0.28000000       0.32000000       0.04000000 </v>
   <v>       0.40000000       0.36000000       0.04000000 </v>
   <v>       0.44000000       0.36000000       0.04000000 </v>
   <v>       0.48000000       0.36000000       0.04000000 </v>
   <v>      -0.48000000       0.36000000       0.04000000 </v>
   <v>      -0.44000000       0.36000000       0.04000000 </v>
   <v>      -0.40000000       0.36000000       0.04000000 </v>
   <v>      -0.36000000       0.36000000       0.04000000 </v>
   <v>      -0.32000000       0.36000000       0.04000000 </v>
   <v>       0.44000000       0.40000000       0.04000000 </v>
   <v>       0.48000000       0.40000000       0.04000000 </v>
   <v>      -0.48000000       0.40000000       0.04000000 </v>
   <v>      -0.44000000       0.40000000       0.04000000 </v>
   <v>      -0.40000000       0.40000000       0.04000000 </v>
   <v>      -0.36000000       0.40000000       0.04000000 </v>
   <v>       0.48000000       0.44000000       0.04000000 </v>
   <v>      -0.48000000       0.44000000       0.04000000 </v>
   <v>      -0.44000000       0.44000000       0.04000000 </v>
   <v>      -0.40000000       0.44000000       0.04000000 </v>
   <v>      -0.48000000       0.48000000       0.04000000 </v>
   <v>      -0.44000000       0.48000000       0.04000000 </v>
   <v>       0.24000000       0.16000000       0.08000000 </v>
   <v>       0.28000000       0.16000000       0.08000000 </v>
   <v>       0.32000000       0.16000000       0.08000000 </v>
   <v>       0.36000000       0.16000000       0.08000000 </v>
   <v>       0.40000000       0.16000000       0.08000000 </v>
   <v>       0.44000000       0.16000000       0.08000000 </v>
   <v>       0.48000000       0.16000000       0.08000000 </v>
   <v>      -0.48000000       0.16000000       0.08000000 </v>
   <v>      -0.44000000       0.16000000       0.08000000 </v>
   <v>       0.28000000       0.20000000       0.08000000 </v>
   <v>       0.32000000       0.20000000       0.08000000 </v>
   <v>       0.36000000       0.20000000       0.08000000 </v>
   <v>       0.40000000       0.20000000       0.08000000 </v>
   <v>       0.44000000       0.20000000       0.08000000 </v>
   <v>       0.48000000       0.20000000       0.08000000 </v>
   <v>      -0.48000000       0.20000000       0.08000000 </v>
   <v>      -0.44000000       0.20000000       0.08000000 </v>
   <v>      -0.40000000       0.20000000       0.08000000 </v>
   <v>      -0.36000000       0.20000000       0.08000000 </v>
   <v>      -0.32000000       0.20000000       0.08000000 </v>
   <v>      -0.28000000       0.20000000       0.08000000 </v>
   <v>      -0.24000000       0.20000000       0.08000000 </v>
   <v>      -0.20000000       0.20000000       0.08000000 </v>
   <v>      -0.16000000       0.20000000       0.08000000 </v>
   <v>      -0.12000000       0.20000000       0.08000000 </v>
   <v>       0.32000000       0.24000000       0.08000000 </v>
   <v>       0.36000000       0.24000000       0.08000000 </v>
   <v>       0.40000000       0.24000000       0.08000000 </v>
   <v>       0.44000000       0.24000000       0.08000000 </v>
   <v>       0.48000000       0.24000000       0.08000000 </v>
   <v>      -0.48000000       0.24000000       0.08000000 </v>
   <v>      -0.44000000       0.24000000       0.08000000 </v>
   <v>      -0.40000000       0.24000000       0.08000000 </v>
   <v>      -0.36000000       0.24000000       0.08000000 </v>
   <v>      -0.32000000       0.24000000       0.08000000 </v>
   <v>      -0.28000000       0.24000000       0.08000000 </v>
   <v>      -0.24000000       0.24000000       0.08000000 </v>
   <v>      -0.20000000       0.24000000       0.08000000 </v>
   <v>      -0.16000000       0.24000000       0.08000000 </v>
   <v>       0.36000000       0.28000000       0.08000000 </v>
   <v>       0.40000000       0.28000000       0.08000000 </v>
   <v>       0.44000000       0.28000000       0.08000000 </v>
   <v>       0.48000000       0.28000000       0.08000000 </v>
   <v>      -0.48000000       0.28000000       0.08000000 </v>
   <v>      -0.44000000       0.28000000       0.08000000 </v>
   <v>      -0.40000000       0.28000000       0.08000000 </v>
   <v>      -0.36000000       0.28000000       0.08000000 </v>
   <v>      -0.32000000       0.28000000       0.08000000 </v>
   <v>      -0.28000000       0.28000000       0.08000000 </v>
   <v>      -0.24000000       0.28000000       0.08000000 </v>
   <v>      -0.20000000       0.28000000       0.08000000 </v>
   <v>       0.40000000       0.32000000       0.08000000 </v>
   <v>       0.44000000       0.32000000       0.08000000 </v>
   <v>       0.48000000       0.32000000       0.08000000 </v>
   <v>      -0.48000000       0.32000000       0.08000000 </v>
   <v>      -0.44000000       0.32000000       0.08000000 </v>
   <v>      -0.40000000       0.32000000       0.08000000 </v>
   <v>      -0.36000000       0.32000000       0.08000000 </v>
   <v>      -0.32000000       0.32000000       0.08000000 </v>
   <v>      -0.28000000       0.32000000       0.08000000 </v>
   <v>      -0.24000000       0.32000000       0.08000000 </v>
   <v>       0.44000000       0.36000000       0.08000000 </v>
   <v>       0.48000000       0.36000000       0.08000000 </v>
   <v>      -0.48000000       0.36000000       0.08000000 </v>
   <v>      -0.44000000       0.36000000       0.08000000 </v>
   <v>      -0.40000000       0.36000000       0.08000000 </v>
   <v>      -0.36000000       0.36000000       0.08000000 </v>
   <v>      -0.32000000       0.36000000       0.08000000 </v>
   <v>      -0.28000000       0.36000000       0.08000000 </v>
   <v>       0.48000000       0.40000000       0.08000000 </v>
   <v>      -0.48000000       0.40000000       0.08000000 </v>
   <v>      -0.44000000       0.40000000       0.08000000 </v>
   <v>      -0.40000000       0.40000000       0.08000000 </v>
   <v>      -0.36000000       0.40000000       0.08000000 </v>
   <v>      -0.32000000       0.40000000       0.08000000 </v>
   <v>      -0.48000000       0.44000000       0.08000000 </v>
   <v>      -0.44000000       0.44000000       0.08000000 </v>
   <v>      -0.40000000       0.44000000       0.08000000 </v>
   <v>      -0.36000000       0.44000000       0.08000000 </v>
   <v>      -0.44000000       0.48000000       0.08000000 </v>
   <v>      -0.40000000       0.48000000       0.08000000 </v>
   <v>       0.36000000       0.24000000       0.12000000 </v>
   <v>       0.40000000       0.24000000       0.12000000 </v>
   <v>       0.44000000       0.24000000       0.12000000 </v>
   <v>       0.48000000       0.24000000       0.12000000 </v>
   <v>      -0.48000000       0.24000000       0.12000000 </v>
   <v>      -0.44000000       0.24000000       0.12000000 </v>
   <v>      -0.40000000       0.24000000       0.12000000 </v>
   <v>       0.40000000       0.28000000       0.12000000 </v>
   <v>       0.44000000       0.28000000       0.12000000 </v>
   <v>       0.48000000       0.28000000       0.12000000 </v>
   <v>      -0.48000000       0.28000000       0.12000000 </v>
   <v>      -0.44000000       0.28000000       0.12000000 </v>
   <v>      -0.40000000       0.28000000       0.12000000 </v>
   <v>      -0.36000000       0.28000000       0.12000000 </v>
   <v>      -0.32000000       0.28000000       0.12000000 </v>
   <v>      -0.28000000       0.28000000       0.12000000 </v>
   <v>      -0.24000000       0.28000000       0.12000000 </v>
   <v>      -0.20000000       0.28000000       0.12000000 </v>
   <v>      -0.16000000       0.28000000       0.12000000 </v>
   <v>       0.44000000       0.32000000       0.12000000 </v>
   <v>       0.48000000       0.32000000       0.12000000 </v>
   <v>      -0.48000000       0.32000000       0.12000000 </v>
   <v>      -0.44000000       0.32000000       0.12000000 </v>
   <v>      -0.40000000       0.32000000       0.12000000 </v>
   <v>      -0.36000000       0.32000000       0.12000000 </v>
   <v>      -0.32000000       0.32000000       0.12000000 </v>
   <v>      -0.28000000       0.32000000       0.12000000 </v>
   <v>      -0.24000000       0.32000000       0.12000000 </v>
   <v>      -0.20000000       0.32000000       0.12000000 </v>
   <v>       0.48000000       0.36000000       0.12000000 </v>
   <v>      -0.48000000       0.36000000       0.12000000 </v>
   <v>      -0.44000000       0.36000000       0.12000000 </v>
   <v>      -0.40000000       0.36000000       0.12000000 </v>
   <v>      -0.36000000       0.36000000       0.12000000 </v>
   <v>      -0.32000000       0.36000000       0.12000000 </v>
   <v>      -0.28000000       0.36000000       0.12000000 </v>
   <v>      -0.24000000       0.36000000       0.12000000 </v>
   <v>      -0.48000000       0.40000000       0.12000000 </v>
   <v>      -0.44000000       0.40000000       0.12000000 </v>
   <v>      -0.40000000       0.40000000       0.12000000 </v>
   <v>      -0.36000000       0.40000000       0.12000000 </v>
   <v>      -0.32000000       0.40000000       0.12000000 </v>
   <v>      -0.28000000       0.40000000       0.12000000 </v>
   <v>      -0.44000000       0.44000000       0.12000000 </v>
   <v>      -0.40000000       0.44000000       0.12000000 </v>
   <v>      -0.36000000       0.44000000       0.12000000 </v>
   <v>      -0.32000000       0.44000000       0.12000000 </v>
   <v>      -0.40000000       0.48000000       0.12000000 </v>
   <v>      -0.36000000       0.48000000       0.12000000 </v>
   <v>       0.48000000       0.32000000       0.16000000 </v>
   <v>      -0.48000000       0.32000000       0.16000000 </v>
   <v>      -0.44000000       0.32000000       0.16000000 </v>
   <v>      -0.40000000       0.32000000       0.16000000 </v>
   <v>      -0.36000000       0.32000000       0.16000000 </v>
   <v>      -0.48000000       0.36000000       0.16000000 </v>
   <v>      -0.44000000       0.36000000       0.16000000 </v>
   <v>      -0.40000000       0.36000000       0.16000000 </v>
   <v>      -0.36000000       0.36000000       0.16000000 </v>
   <v>      -0.32000000       0.36000000       0.16000000 </v>
   <v>      -0.28000000       0.36000000       0.16000000 </v>
   <v>      -0.24000000       0.36000000       0.16000000 </v>
   <v>      -0.20000000       0.36000000       0.16000000 </v>
   <v>      -0.44000000       0.40000000       0.16000000 </v>
   <v>      -0.40000000       0.40000000       0.16000000 </v>
   <v>      -0.36000000       0.40000000       0.16000000 </v>
   <v>      -0.32000000       0.40000000       0.16000000 </v>
   <v>      -0.28000000       0.40000000       0.16000000 </v>
   <v>      -0.24000000       0.40000000       0.16000000 </v>
   <v>      -0.40000000       0.44000000       0.16000000 </v>
   <v>      -0.36000000       0.44000000       0.16000000 </v>
   <v>      -0.32000000       0.44000000       0.16000000 </v>
   <v>      -0.28000000       0.44000000       0.16000000 </v>
   <v>      -0.36000000       0.48000000       0.16000000 </v>
   <v>      -0.32000000       0.48000000       0.16000000 </v>
   <v>      -0.40000000       0.40000000       0.20000000 </v>
   <v>      -0.36000000       0.40000000       0.20000000 </v>
   <v>      -0.32000000       0.40000000       0.20000000 </v>
   <v>      -0.36000000       0.44000000       0.20000000 </v>
   <v>      -0.32000000       0.44000000       0.20000000 </v>
   <v>      -0.28000000       0.44000000       0.20000000 </v>
   <v>      -0.24000000       0.44000000       0.20000000 </v>
   <v>      -0.32000000       0.48000000       0.20000000 </v>
   <v>      -0.28000000       0.48000000       0.20000000 </v>
   <v>      -0.28000000       0.48000000       0.24000000 </v>
  </varray>
  <varray name="weights" >
   <v>       0.00006400 </v>
   <v>       0.00051200 </v>
   <v>       0.00051200 </v>
   <v>       0.00051200 </v>
   <v>       0.00051200 </v>
   <v>       0.00051200 </v>
   <v>       0.00051200 </v>
   <v>       0.00051200 </v>
   <v>       0.00051200 </v>
   <v>       0.00051200 </v>
   <v>       0.00051200 </v>
   <v>       0.00051200 </v>
   <v>       0.00051200 </v>
   <v>       0.00038400 </v>
   <v>       0.00153600 </v>
   <v>       0.00153600 </v>
   <v>       0.00153600 </v>
   <v>       0.00153600 </v>
   <v>       0.00153600 </v>
   <v>       0.00153600 </v>
   <v>       0.00153600 </v>
   <v>       0.00153600 </v>
   <v>       0.00153600 </v>
   <v>       0.00153600 </v>
   <v>       0.00153600 </v>
   <v>       0.00153600 </v>
   <v>       0.00153600 </v>
   <v>       0.00153600 </v>
   <v>       0.00153600 </v>
   <v>       0.00153600 </v>
   <v>       0.00153600 </v>
   <v>       0.00153600 </v>
   <v>       0.00153600 </v>
   <v>       0.00153600 </v>
   <v>       0.00153600 </v>
   <v>       0.00153600 </v>
   <v>       0.00076800 </v>
   <v>       0.00038400 </v>
   <v>       0.00153600 </v>
   <v>       0.00153600 </v>
   <v>       0.00153600 </v>
   <v>       0.00153600 </v>
   <v>       0.00153600 </v>
   <v>       0.00153600 </v>
   <v>       0.00153600 </v>
   <v>       0.00153600 </v>
   <v>       0.00153600 </v>
   <v>       0.00153600 </v>
   <v>       0.00153600 </v>
   <v>       0.00153600 </v>
   <v>       0.00153600 </v>
   <v>       0.00153600 </v>
   <v>       0.00153600 </v>
   <v>       0.00153600 </v>
   <v>       0.00153600 </v>
   <v>       0.00153600 </v>
   <v>       0.00153600 </v>
   <v>       0.00153600 </v>
   <v>       0.00076800 </v>
   <v>       0.00038400 </v>
   <v>       0.00153600 </v>
   <v>       0.00153600 </v>
   <v>       0.00153600 </v>
   <v>       0.00153600 </v>
   <v>       0.00153600 </v>
   <v>       0.00153600 </v>
   <v>       0.00153600 </v>
   <v>       0.00153600 </v>
   <v>       0.00153600 </v>
   <v>       0.00153600 </v>
   <v>       0.00153600 </v>
   <v>       0.00153600 </v>
   <v>       0.00153600 </v>
   <v>       0.00153600 </v>
   <v>       0.00153600 </v>
   <v>       0.00153600 </v>
   <v>       0.00153600 </v>
   <v>       0.00153600 </v>
   <v>       0.00076800 </v>
   <v>       0.00038400 </v>
   <v>       0.00153600 </v>
   <v>       0.00153600 </v>
   <v>       0.00153600 </v>
   <v>       0.00153600 </v>
   <v>       0.00153600 </v>
   <v>       0.00153600 </v>
   <v>       0.00153600 </v>
   <v>       0.00153600 </v>
   <v>       0.00153600 </v>
   <v>       0.00153600 </v>
   <v>       0.00153600 </v>
   <v>       0.00153600 </v>
   <v>       0.00153600 </v>
   <v>       0.00153600 </v>
   <v>       0.00153600 </v>
   <v>       0.00153600 </v>
   <v>       0.00076800 </v>
   <v>       0.00038400 </v>
   <v>       0.00153600 </v>
   <v>       0.00153600 </v>
   <v>       0.00153600 </v>
   <v>       0.00153600 </v>
   <v>       0.00153600 </v>
   <v>       0.00153600 </v>
   <v>       0.00153600 </v>
   <v>       0.00153600 </v>
   <v>       0.00153600 </v>
   <v>       0.00153600 </v>
   <v>       0.00153600 </v>
   <v>       0.00153600 </v>
   <v>       0.00153600 </v>
   <v>       0.00153600 </v>
   <v>       0.00076800 </v>
   <v>       0.00038400 </v>
   <v>       0.00153600 </v>
   <v>       0.00153600 </v>
   <v>       0.00153600 </v>
   <v>       0.00153600 </v>
   <v>       0.00153600 </v>
   <v>       0.00153600 </v>
   <v>       0.00153600 </v>
   <v>       0.00153600 </v>
   <v>       0.00153600 </v>
   <v>       0.00153600 </v>
   <v>       0.00153600 </v>
   <v>       0.00153600 </v>
   <v>       0.00076800 </v>
   <v>       0.00038400 </v>
   <v>       0.00153600 </v>
   <v>       0.00153600 </v>
   <v>       0.00153600 </v>
   <v>       0.00153600 </v>
   <v>       0.00153600 </v>
   <v>       0.00153600 </v>
   <v>       0.00153600 </v>
   <v>       0.00153600 </v>
   <v>       0.00153600 </v>
   <v>       0.00153600 </v>
   <v>       0.00076800 </v>
   <v>       0.00038400 </v>
   <v>       0.00153600 </v>
   <v>       0.00153600 </v>
   <v>       0.00153600 </v>
   <v>       0.00153600 </v>
   <v>       0.00153600 </v>
   <v>       0.00153600 </v>
   <v>       0.00153600 </v>
   <v>       0.00153600 </v>
   <v>       0.00076800 </v>
   <v>       0.00038400 </v>
   <v>       0.00153600 </v>
   <v>       0.00153600 </v>
   <v>       0.00153600 </v>
   <v>       0.00153600 </v>
   <v>       0.00153600 </v>
   <v>       0.00153600 </v>
   <v>       0.00076800 </v>
   <v>       0.00038400 </v>
   <v>       0.00153600 </v>
   <v>       0.00153600 </v>
   <v>       0.00153600 </v>
   <v>       0.00153600 </v>
   <v>       0.00076800 </v>
   <v>       0.00038400 </v>
   <v>       0.00153600 </v>
   <v>       0.00153600 </v>
   <v>       0.00076800 </v>
   <v>       0.00038400 </v>
   <v>       0.00076800 </v>
   <v>       0.00153600 </v>
   <v>       0.00307200 </v>
   <v>       0.00307200 </v>
   <v>       0.00307200 </v>
   <v>       0.00307200 </v>
   <v>       0.00307200 </v>
   <v>       0.00307200 </v>
   <v>       0.00307200 </v>
   <v>       0.00307200 </v>
   <v>       0.00307200 </v>
   <v>       0.00307200 </v>
   <v>       0.00153600 </v>
   <v>       0.00307200 </v>
   <v>       0.00307200 </v>
   <v>       0.00307200 </v>
   <v>       0.00307200 </v>
   <v>       0.00307200 </v>
   <v>       0.00307200 </v>
   <v>       0.00307200 </v>
   <v>       0.00307200 </v>
   <v>       0.00307200 </v>
   <v>       0.00307200 </v>
   <v>       0.00307200 </v>
   <v>       0.00307200 </v>
   <v>       0.00307200 </v>
   <v>       0.00307200 </v>
   <v>       0.00307200 </v>
   <v>       0.00307200 </v>
   <v>       0.00307200 </v>
   <v>       0.00307200 </v>
   <v>       0.00153600 </v>
   <v>       0.00153600 </v>
   <v>       0.00307200 </v>
   <v>       0.00307200 </v>
   <v>       0.00307200 </v>
   <v>       0.00307200 </v>
   <v>       0.00307200 </v>
   <v>       0.00307200 </v>
   <v>       0.00307200 </v>
   <v>       0.00307200 </v>
   <v>       0.00307200 </v>
   <v>       0.00307200 </v>
   <v>       0.00307200 </v>
   <v>       0.00307200 </v>
   <v>       0.00307200 </v>
   <v>       0.00307200 </v>
   <v>       0.00307200 </v>
   <v>       0.00307200 </v>
   <v>       0.00153600 </v>
   <v>       0.00153600 </v>
   <v>       0.00307200 </v>
   <v>       0.00307200 </v>
   <v>       0.00307200 </v>
   <v>       0.00307200 </v>
   <v>       0.00307200 </v>
   <v>       0.00307200 </v>
   <v>       0.00307200 </v>
   <v>       0.00307200 </v>
   <v>       0.00307200 </v>
   <v>       0.00307200 </v>
   <v>       0.00307200 </v>
   <v>       0.00307200 </v>
   <v>       0.00307200 </v>
   <v>       0.00307200 </v>
   <v>       0.00153600 </v>
   <v>       0.00153600 </v>
   <v>       0.00307200 </v>
   <v>       0.00307200 </v>
   <v>       0.00307200 </v>
   <v>       0.00307200 </v>
   <v>       0.00307200 </v>
   <v>       0.00307200 </v>
   <v>       0.00307200 </v>
   <v>       0.00307200 </v>
   <v>       0.00307200 </v>
   <v>       0.00307200 </v>
   <v>       0.00307200 </v>
   <v>       0.00307200 </v>
   <v>       0.00153600 </v>
   <v>       0.00153600 </v>
   <v>       0.00307200 </v>
   <v>       0.00307200 </v>
   <v>       0.00307200 </v>
   <v>       0.00307200 </v>
   <v>       0.00307200 </v>
   <v>       0.00307200 </v>
   <v>       0.00307200 </v>
   <v>       0.00307200 </v>
   <v>       0.00307200 </v>
   <v>       0.00307200 </v>
   <v>       0.00153600 </v>
   <v>       0.00153600 </v>
   <v>       0.00307200 </v>
   <v>       0.00307200 </v>
   <v>       0.00307200 </v>
   <v>       0.00307200 </v>
   <v>       0.00307200 </v>
   <v>       0.00307200 </v>
   <v>       0.00307200 </v>
   <v>       0.00307200 </v>
   <v>       0.00153600 </v>
   <v>       0.00153600 </v>
   <v>       0.00307200 </v>
   <v>       0.00307200 </v>
   <v>       0.00307200 </v>
   <v>       0.00307200 </v>
   <v>       0.00307200 </v>
   <v>       0.00307200 </v>
   <v>       0.00153600 </v>
   <v>       0.00153600 </v>
   <v>       0.00307200 </v>
   <v>       0.00307200 </v>
   <v>       0.00307200 </v>
   <v>       0.00307200 </v>
   <v>       0.00153600 </v>
   <v>       0.00153600 </v>
   <v>       0.00307200 </v>
   <v>       0.00307200 </v>
   <v>       0.00153600 </v>
   <v>       0.00153600 </v>
   <v>       0.00153600 </v>
   <v>       0.00153600 </v>
   <v>       0.00307200 </v>
   <v>       0.00307200 </v>
   <v>       0.00307200 </v>
   <v>       0.00307200 </v>
   <v>       0.00307200 </v>
   <v>       0.00307200 </v>
   <v>       0.00307200 </v>
   <v>       0.00307200 </v>
   <v>       0.00153600 </v>
   <v>       0.00307200 </v>
   <v>       0.00307200 </v>
   <v>       0.00307200 </v>
   <v>       0.00307200 </v>
   <v>       0.00307200 </v>
   <v>       0.00307200 </v>
   <v>       0.00307200 </v>
   <v>       0.00307200 </v>
   <v>       0.00307200 </v>
   <v>       0.00307200 </v>
   <v>       0.00307200 </v>
   <v>       0.00307200 </v>
   <v>       0.00307200 </v>
   <v>       0.00307200 </v>
   <v>       0.00153600 </v>
   <v>       0.00153600 </v>
   <v>       0.00307200 </v>
   <v>       0.00307200 </v>
   <v>       0.00307200 </v>
   <v>       0.00307200 </v>
   <v>       0.00307200 </v>
   <v>       0.00307200 </v>
   <v>       0.00307200 </v>
   <v>       0.00307200 </v>
   <v>       0.00307200 </v>
   <v>       0.00307200 </v>
   <v>       0.00307200 </v>
   <v>       0.00307200 </v>
   <v>       0.00153600 </v>
   <v>       0.00153600 </v>
   <v>       0.00307200 </v>
   <v>       0.00307200 </v>
   <v>       0.00307200 </v>
   <v>       0.00307200 </v>
   <v>       0.00307200 </v>
   <v>       0.00307200 </v>
   <v>       0.00307200 </v>
   <v>       0.00307200 </v>
   <v>       0.00307200 </v>
   <v>       0.00307200 </v>
   <v>       0.00153600 </v>
   <v>       0.00153600 </v>
   <v>       0.00307200 </v>
   <v>       0.00307200 </v>
   <v>       0.00307200 </v>
   <v>       0.00307200 </v>
   <v>       0.00307200 </v>
   <v>       0.00307200 </v>
   <v>       0.00307200 </v>
   <v>       0.00307200 </v>
   <v>       0.00153600 </v>
   <v>       0.00153600 </v>
   <v>       0.00307200 </v>
   <v>       0.00307200 </v>
   <v>       0.00307200 </v>
   <v>       0.00307200 </v>
   <v>       0.00307200 </v>
   <v>       0.00307200 </v>
   <v>       0.00153600 </v>
   <v>       0.00153600 </v>
   <v>       0.00307200 </v>
   <v>       0.00307200 </v>
   <v>       0.00307200 </v>
   <v>       0.00307200 </v>
   <v>       0.00153600 </v>
   <v>       0.00153600 </v>
   <v>       0.00307200 </v>
   <v>       0.00307200 </v>
   <v>       0.00153600 </v>
   <v>       0.00153600 </v>
   <v>       0.00153600 </v>
   <v>       0.00153600 </v>
   <v>       0.00307200 </v>
   <v>       0.00307200 </v>
   <v>       0.00307200 </v>
   <v>       0.00307200 </v>
   <v>       0.00307200 </v>
   <v>       0.00307200 </v>
   <v>       0.00153600 </v>
   <v>       0.00307200 </v>
   <v>       0.00307200 </v>
   <v>       0.00307200 </v>
   <v>       0.00307200 </v>
   <v>       0.00307200 </v>
   <v>       0.00307200 </v>
   <v>       0.00307200 </v>
   <v>       0.00307200 </v>
   <v>       0.00307200 </v>
   <v>       0.00307200 </v>
   <v>       0.00153600 </v>
   <v>       0.00153600 </v>
   <v>       0.00307200 </v>
   <v>       0.00307200 </v>
   <v>       0.00307200 </v>
   <v>       0.00307200 </v>
   <v>       0.00307200 </v>
   <v>       0.00307200 </v>
   <v>       0.00307200 </v>
   <v>       0.00307200 </v>
   <v>       0.00153600 </v>
   <v>       0.00153600 </v>
   <v>       0.00307200 </v>
   <v>       0.00307200 </v>
   <v>       0.00307200 </v>
   <v>       0.00307200 </v>
   <v>       0.00307200 </v>
   <v>       0.00307200 </v>
   <v>       0.00153600 </v>
   <v>       0.00153600 </v>
   <v>       0.00307200 </v>
   <v>       0.00307200 </v>
   <v>       0.00307200 </v>
   <v>       0.00307200 </v>
   <v>       0.00153600 </v>
   <v>       0.00153600 </v>
   <v>       0.00307200 </v>
   <v>       0.00307200 </v>
   <v>       0.00153600 </v>
   <v>       0.00153600 </v>
   <v>       0.00153600 </v>
   <v>       0.00153600 </v>
   <v>       0.00307200 </v>
   <v>       0.00307200 </v>
   <v>       0.00307200 </v>
   <v>       0.00307200 </v>
   <v>       0.00153600 </v>
   <v>       0.00307200 </v>
   <v>       0.00307200 </v>
   <v>       0.00307200 </v>
   <v>       0.00307200 </v>
   <v>       0.00307200 </v>
   <v>       0.00307200 </v>
   <v>       0.00153600 </v>
   <v>       0.00153600 </v>
   <v>       0.00307200 </v>
   <v>       0.00307200 </v>
   <v>       0.00307200 </v>
   <v>       0.00307200 </v>
   <v>       0.00153600 </v>
   <v>       0.00153600 </v>
   <v>       0.00307200 </v>
   <v>       0.00307200 </v>
   <v>       0.00153600 </v>
   <v>       0.00153600 </v>
   <v>       0.00153600 </v>
   <v>       0.00153600 </v>
   <v>       0.00307200 </v>
   <v>       0.00307200 </v>
   <v>       0.00153600 </v>
   <v>       0.00307200 </v>
   <v>       0.00307200 </v>
   <v>       0.00153600 </v>
   <v>       0.00153600 </v>
   <v>       0.00153600 </v>
   <v>       0.00153600 </v>
  </varray>
  <varray name="tetrahedronlist"  type="int" >
   <v type="int" >       24        1        2        2       14 </v>
   <v type="int" >       48        2       14       15       37 </v>
   <v type="int" >       48        2        3       15       37 </v>
   <v type="int" >       24        2        2       14       37 </v>
   <v type="int" >       48        3       15       16       36 </v>
   <v type="int" >       48        3        4       16       36 </v>
   <v type="int" >       48        3       15       36       37 </v>
   <v type="int" >       48        4       16       17       35 </v>
   <v type="int" >       48        4        5       17       35 </v>
   <v type="int" >       48        4       16       35       36 </v>
   <v type="int" >       48        5       17       18       34 </v>
   <v type="int" >       48        5        6       18       34 </v>
   <v type="int" >       48        5       17       34       35 </v>
   <v type="int" >       48        6       18       19       33 </v>
   <v type="int" >       48        6        7       19       33 </v>
   <v type="int" >       48        6       18       33       34 </v>
   <v type="int" >       48        7       19       20       32 </v>
   <v type="int" >       48        7        8       20       32 </v>
   <v type="int" >       48        7       19       32       33 </v>
   <v type="int" >       48        8       20       21       31 </v>
   <v type="int" >       48        8        9       21       31 </v>
   <v type="int" >       48        8       20       31       32 </v>
   <v type="int" >       48        9       21       22       30 </v>
   <v type="int" >       48        9       10       22       30 </v>
   <v type="int" >       48        9       21       30       31 </v>
   <v type="int" >       48       10       22       23       29 </v>
   <v type="int" >       48       10       11       23       29 </v>
   <v type="int" >       48       10       22       29       30 </v>
   <v type="int" >       48       11       23       24       28 </v>
   <v type="int" >       48       11       12       24       28 </v>
   <v type="int" >       48       11       23       28       29 </v>
   <v type="int" >       48       12       24       25       27 </v>
   <v type="int" >       48       12       13       25       27 </v>
   <v type="int" >       48       12       24       27       28 </v>
   <v type="int" >       48       13       25       26       26 </v>
   <v type="int" >       24       13       13       26       26 </v>
   <v type="int" >       48       13       25       26       27 </v>
   <v type="int" >       24       14       15       15       38 </v>
   <v type="int" >       24       14       15       15       37 </v>
   <v type="int" >       48       15       38       39      170 </v>
   <v type="int" >       48       15       16       39      170 </v>
   <v type="int" >       48       15       16       36      170 </v>
   <v type="int" >       24       15       15       38      170 </v>
   <v type="int" >       24       15       15       37      170 </v>
   <v type="int" >       48       15       36       37      170 </v>
   <v type="int" >       48       16       39       40      171 </v>
   <v type="int" >       48       16       17       40      171 </v>
   <v type="int" >       48       16       17       35      171 </v>
   <v type="int" >       48       16       39      170      171 </v>
   <v type="int" >       48       16       36      170      171 </v>
   <v type="int" >       48       16       35       36      171 </v>
   <v type="int" >       48       17       40       41      172 </v>
   <v type="int" >       48       17       18       41      172 </v>
   <v type="int" >       48       17       18       34      172 </v>
   <v type="int" >       48       17       40      171      172 </v>
   <v type="int" >       48       17       35      171      172 </v>
   <v type="int" >       48       17       34       35      172 </v>
   <v type="int" >       48       18       41       42      173 </v>
   <v type="int" >       48       18       19       42      173 </v>
   <v type="int" >       48       18       19       33      173 </v>
   <v type="int" >       48       18       41      172      173 </v>
   <v type="int" >       48       18       34      172      173 </v>
   <v type="int" >       48       18       33       34      173 </v>
   <v type="int" >       48       19       42       43      174 </v>
   <v type="int" >       48       19       20       43      174 </v>
   <v type="int" >       48       19       20       32      174 </v>
   <v type="int" >       48       19       42      173      174 </v>
   <v type="int" >       48       19       33      173      174 </v>
   <v type="int" >       48       19       32       33      174 </v>
   <v type="int" >       48       20       43       44      175 </v>
   <v type="int" >       48       20       21       44      175 </v>
   <v type="int" >       48       20       21       31      175 </v>
   <v type="int" >       48       20       43      174      175 </v>
   <v type="int" >       48       20       32      174      175 </v>
   <v type="int" >       48       20       31       32      175 </v>
   <v type="int" >       48       21       44       45      176 </v>
   <v type="int" >       48       21       22       45      176 </v>
   <v type="int" >       48       21       22       30      176 </v>
   <v type="int" >       48       21       44      175      176 </v>
   <v type="int" >       48       21       31      175      176 </v>
   <v type="int" >       48       21       30       31      176 </v>
   <v type="int" >       48       22       45       46      177 </v>
   <v type="int" >       48       22       23       46      177 </v>
   <v type="int" >       48       22       23       29      177 </v>
   <v type="int" >       48       22       45      176      177 </v>
   <v type="int" >       48       22       30      176      177 </v>
   <v type="int" >       48       22       29       30      177 </v>
   <v type="int" >       48       23       46       47      178 </v>
   <v type="int" >       48       23       24       47      178 </v>
   <v type="int" >       48       23       24       28      178 </v>
   <v type="int" >       48       23       46      177      178 </v>
   <v type="int" >       48       23       29      177      178 </v>
   <v type="int" >       48       23       28       29      178 </v>
   <v type="int" >       48       24       47       48      179 </v>
   <v type="int" >       48       24       25       48      179 </v>
   <v type="int" >       48       24       25       27      179 </v>
   <v type="int" >       48       24       47      178      179 </v>
   <v type="int" >       48       24       28      178      179 </v>
   <v type="int" >       48       24       27       28      179 </v>
   <v type="int" >       48       25       48       49      180 </v>
   <v type="int" >       48       25       26       49      180 </v>
   <v type="int" >       48       25       26       26      180 </v>
   <v type="int" >       48       25       48      179      180 </v>
   <v type="int" >       48       25       27      179      180 </v>
   <v type="int" >       48       25       26       27      180 </v>
   <v type="int" >       48       26       49       50      180 </v>
   <v type="int" >       48       26       27       50      180 </v>
   <v type="int" >       48       26       49      180      180 </v>
   <v type="int" >       24       26       26      180      180 </v>
   <v type="int" >       48       27       50       51      179 </v>
   <v type="int" >       48       27       28       51      179 </v>
   <v type="int" >       48       27       50      179      180 </v>
   <v type="int" >       48       28       51       52      178 </v>
   <v type="int" >       48       28       29       52      178 </v>
   <v type="int" >       48       28       51      178      179 </v>
   <v type="int" >       48       29       52       53      177 </v>
   <v type="int" >       48       29       30       53      177 </v>
   <v type="int" >       48       29       52      177      178 </v>
   <v type="int" >       48       30       53       54      176 </v>
   <v type="int" >       48       30       31       54      176 </v>
   <v type="int" >       48       30       53      176      177 </v>
   <v type="int" >       48       31       54       55      175 </v>
   <v type="int" >       48       31       32       55      175 </v>
   <v type="int" >       48       31       54      175      176 </v>
   <v type="int" >       48       32       55       56      174 </v>
   <v type="int" >       48       32       33       56      174 </v>
   <v type="int" >       48       32       55      174      175 </v>
   <v type="int" >       48       33       56       57      173 </v>
   <v type="int" >       48       33       34       57      173 </v>
   <v type="int" >       48       33       56      173      174 </v>
   <v type="int" >       48       34       57       58      172 </v>
   <v type="int" >       48       34       35       58      172 </v>
   <v type="int" >       48       34       57      172      173 </v>
   <v type="int" >       48       35       58       59      171 </v>
   <v type="int" >       48       35       36       59      171 </v>
   <v type="int" >       48       35       58      171      172 </v>
   <v type="int" >       24       36       36       59      170 </v>
   <v type="int" >       24       36       36       37      170 </v>
   <v type="int" >       48       36       59      170      171 </v>
   <v type="int" >       24       38       39       39       60 </v>
   <v type="int" >       24       38       39       39      170 </v>
   <v type="int" >       48       39       60       61      181 </v>
   <v type="int" >       48       39       40       61      181 </v>
   <v type="int" >       48       39       40      171      181 </v>
   <v type="int" >       24       39       39       60      181 </v>
   <v type="int" >       24       39       39      170      181 </v>
   <v type="int" >       48       39      170      171      181 </v>
   <v type="int" >       48       40       61       62      182 </v>
   <v type="int" >       48       40       41       62      182 </v>
   <v type="int" >       48       40       41      172      182 </v>
   <v type="int" >       48       40       61      181      182 </v>
   <v type="int" >       48       40      171      181      182 </v>
   <v type="int" >       48       40      171      172      182 </v>
   <v type="int" >       48       41       62       63      183 </v>
   <v type="int" >       48       41       42       63      183 </v>
   <v type="int" >       48       41       42      173      183 </v>
   <v type="int" >       48       41       62      182      183 </v>
   <v type="int" >       48       41      172      182      183 </v>
   <v type="int" >       48       41      172      173      183 </v>
   <v type="int" >       48       42       63       64      184 </v>
   <v type="int" >       48       42       43       64      184 </v>
   <v type="int" >       48       42       43      174      184 </v>
   <v type="int" >       48       42       63      183      184 </v>
   <v type="int" >       48       42      173      183      184 </v>
   <v type="int" >       48       42      173      174      184 </v>
   <v type="int" >       48       43       64       65      185 </v>
   <v type="int" >       48       43       44       65      185 </v>
   <v type="int" >       48       43       44      175      185 </v>
   <v type="int" >       48       43       64      184      185 </v>
   <v type="int" >       48       43      174      184      185 </v>
   <v type="int" >       48       43      174      175      185 </v>
   <v type="int" >       48       44       65       66      186 </v>
   <v type="int" >       48       44       45       66      186 </v>
   <v type="int" >       48       44       45      176      186 </v>
   <v type="int" >       48       44       65      185      186 </v>
   <v type="int" >       48       44      175      185      186 </v>
   <v type="int" >       48       44      175      176      186 </v>
   <v type="int" >       48       45       66       67      187 </v>
   <v type="int" >       48       45       46       67      187 </v>
   <v type="int" >       48       45       46      177      187 </v>
   <v type="int" >       48       45       66      186      187 </v>
   <v type="int" >       48       45      176      186      187 </v>
   <v type="int" >       48       45      176      177      187 </v>
   <v type="int" >       48       46       67       68      188 </v>
   <v type="int" >       48       46       47       68      188 </v>
   <v type="int" >       48       46       47      178      188 </v>
   <v type="int" >       48       46       67      187      188 </v>
   <v type="int" >       48       46      177      187      188 </v>
   <v type="int" >       48       46      177      178      188 </v>
   <v type="int" >       48       47       68       69      189 </v>
   <v type="int" >       48       47       48       69      189 </v>
   <v type="int" >       48       47       48      179      189 </v>
   <v type="int" >       48       47       68      188      189 </v>
   <v type="int" >       48       47      178      188      189 </v>
   <v type="int" >       48       47      178      179      189 </v>
   <v type="int" >       48       48       69       70      190 </v>
   <v type="int" >       48       48       49       70      190 </v>
   <v type="int" >       48       48       49      180      190 </v>
   <v type="int" >       48       48       69      189      190 </v>
   <v type="int" >       48       48      179      189      190 </v>
   <v type="int" >       48       48      179      180      190 </v>
   <v type="int" >       48       49       70       71      191 </v>
   <v type="int" >       48       49       50       71      191 </v>
   <v type="int" >       48       49       50      180      191 </v>
   <v type="int" >       48       49       70      190      191 </v>
   <v type="int" >       48       49      180      190      191 </v>
   <v type="int" >       48       49      180      180      191 </v>
   <v type="int" >       48       50       71       72      192 </v>
   <v type="int" >       48       50       51       72      192 </v>
   <v type="int" >       48       50       51      179      192 </v>
   <v type="int" >       48       50       71      191      192 </v>
   <v type="int" >       48       50      180      191      192 </v>
   <v type="int" >       48       50      179      180      192 </v>
   <v type="int" >       48       51       72       73      193 </v>
   <v type="int" >       48       51       52       73      193 </v>
   <v type="int" >       48       51       52      178      193 </v>
   <v type="int" >       48       51       72      192      193 </v>
   <v type="int" >       48       51      179      192      193 </v>
   <v type="int" >       48       51      178      179      193 </v>
   <v type="int" >       48       52       73       74      194 </v>
   <v type="int" >       48       52       53       74      194 </v>
   <v type="int" >       48       52       53      177      194 </v>
   <v type="int" >       48       52       73      193      194 </v>
   <v type="int" >       48       52      178      193      194 </v>
   <v type="int" >       48       52      177      178      194 </v>
   <v type="int" >       48       53       74       75      195 </v>
   <v type="int" >       48       53       54       75      195 </v>
   <v type="int" >       48       53       54      176      195 </v>
   <v type="int" >       48       53       74      194      195 </v>
   <v type="int" >       48       53      177      194      195 </v>
   <v type="int" >       48       53      176      177      195 </v>
   <v type="int" >       48       54       75       76      196 </v>
   <v type="int" >       48       54       55       76      196 </v>
   <v type="int" >       48       54       55      175      196 </v>
   <v type="int" >       48       54       75      195      196 </v>
   <v type="int" >       48       54      176      195      196 </v>
   <v type="int" >       48       54      175      176      196 </v>
   <v type="int" >       48       55       76       77      197 </v>
   <v type="int" >       48       55       56       77      197 </v>
   <v type="int" >       48       55       56      174      197 </v>
   <v type="int" >       48       55       76      196      197 </v>
   <v type="int" >       48       55      175      196      197 </v>
   <v type="int" >       48       55      174      175      197 </v>
   <v type="int" >       48       56       77       78      198 </v>
   <v type="int" >       48       56       57       78      198 </v>
   <v type="int" >       48       56       57      173      198 </v>
   <v type="int" >       48       56       77      197      198 </v>
   <v type="int" >       48       56      174      197      198 </v>
   <v type="int" >       48       56      173      174      198 </v>
   <v type="int" >       48       57       78       79      199 </v>
   <v type="int" >       48       57       58       79      199 </v>
   <v type="int" >       48       57       58      172      199 </v>
   <v type="int" >       48       57       78      198      199 </v>
   <v type="int" >       48       57      173      198      199 </v>
   <v type="int" >       48       57      172      173      199 </v>
   <v type="int" >       24       58       58       79      200 </v>
   <v type="int" >       24       58       58       59      200 </v>
   <v type="int" >       48       58       59      171      200 </v>
   <v type="int" >       48       58       79      199      200 </v>
   <v type="int" >       48       58      172      199      200 </v>
   <v type="int" >       48       58      171      172      200 </v>
   <v type="int" >       24       59      171      171      200 </v>
   <v type="int" >       24       59      170      171      171 </v>
   <v type="int" >       24       60       61       61       80 </v>
   <v type="int" >       24       60       61       61      181 </v>
   <v type="int" >       48       61       80       81      201 </v>
   <v type="int" >       48       61       62       81      201 </v>
   <v type="int" >       48       61       62      182      201 </v>
   <v type="int" >       24       61       61       80      201 </v>
   <v type="int" >       24       61       61      181      201 </v>
   <v type="int" >       48       61      181      182      201 </v>
   <v type="int" >       48       62       81       82      202 </v>
   <v type="int" >       48       62       63       82      202 </v>
   <v type="int" >       48       62       63      183      202 </v>
   <v type="int" >       48       62       81      201      202 </v>
   <v type="int" >       48       62      182      201      202 </v>
   <v type="int" >       48       62      182      183      202 </v>
   <v type="int" >       48       63       82       83      203 </v>
   <v type="int" >       48       63       64       83      203 </v>
   <v type="int" >       48       63       64      184      203 </v>
   <v type="int" >       48       63       82      202      203 </v>
   <v type="int" >       48       63      183      202      203 </v>
   <v type="int" >       48       63      183      184      203 </v>
   <v type="int" >       48       64       83       84      204 </v>
   <v type="int" >       48       64       65       84      204 </v>
   <v type="int" >       48       64       65      185      204 </v>
   <v type="int" >       48       64       83      203      204 </v>
   <v type="int" >       48       64      184      203      204 </v>
   <v type="int" >       48       64      184      185      204 </v>
   <v type="int" >       48       65       84       85      205 </v>
   <v type="int" >       48       65       66       85      205 </v>
   <v type="int" >       48       65       66      186      205 </v>
   <v type="int" >       48       65       84      204      205 </v>
   <v type="int" >       48       65      185      204      205 </v>
   <v type="int" >       48       65      185      186      205 </v>
   <v type="int" >       48       66       85       86      206 </v>
   <v type="int" >       48       66       67       86      206 </v>
   <v type="int" >       48       66       67      187      206 </v>
   <v type="int" >       48       66       85      205      206 </v>
   <v type="int" >       48       66      186      205      206 </v>
   <v type="int" >       48       66      186      187      206 </v>
   <v type="int" >       48       67       86       87      207 </v>
   <v type="int" >       48       67       68       87      207 </v>
   <v type="int" >       48       67       68      188      207 </v>
   <v type="int" >       48       67       86      206      207 </v>
   <v type="int" >       48       67      187      206      207 </v>
   <v type="int" >       48       67      187      188      207 </v>
   <v type="int" >       48       68       87       88      208 </v>
   <v type="int" >       48       68       69       88      208 </v>
   <v type="int" >       48       68       69      189      208 </v>
   <v type="int" >       48       68       87      207      208 </v>
   <v type="int" >       48       68      188      207      208 </v>
   <v type="int" >       48       68      188      189      208 </v>
   <v type="int" >       48       69       88       89      209 </v>
   <v type="int" >       48       69       70       89      209 </v>
   <v type="int" >       48       69       70      190      209 </v>
   <v type="int" >       48       69       88      208      209 </v>
   <v type="int" >       48       69      189      208      209 </v>
   <v type="int" >       48       69      189      190      209 </v>
   <v type="int" >       48       70       89       90      210 </v>
   <v type="int" >       48       70       71       90      210 </v>
   <v type="int" >       48       70       71      191      210 </v>
   <v type="int" >       48       70       89      209      210 </v>
   <v type="int" >       48       70      190      209      210 </v>
   <v type="int" >       48       70      190      191      210 </v>
   <v type="int" >       48       71       90       91      211 </v>
   <v type="int" >       48       71       72       91      211 </v>
   <v type="int" >       48       71       72      192      211 </v>
   <v type="int" >       48       71       90      210      211 </v>
   <v type="int" >       48       71      191      210      211 </v>
   <v type="int" >       48       71      191      192      211 </v>
   <v type="int" >       48       72       91       92      212 </v>
   <v type="int" >       48       72       73       92      212 </v>
   <v type="int" >       48       72       73      193      212 </v>
   <v type="int" >       48       72       91      211      212 </v>
   <v type="int" >       48       72      192      211      212 </v>
   <v type="int" >       48       72      192      193      212 </v>
   <v type="int" >       48       73       92       93      213 </v>
   <v type="int" >       48       73       74       93      213 </v>
   <v type="int" >       48       73       74      194      213 </v>
   <v type="int" >       48       73       92      212      213 </v>
   <v type="int" >       48       73      193      212      213 </v>
   <v type="int" >       48       73      193      194      213 </v>
   <v type="int" >       48       74       93       94      214 </v>
   <v type="int" >       48       74       75       94      214 </v>
   <v type="int" >       48       74       75      195      214 </v>
   <v type="int" >       48       74       93      213      214 </v>
   <v type="int" >       48       74      194      213      214 </v>
   <v type="int" >       48       74      194      195      214 </v>
   <v type="int" >       48       75       94       95      215 </v>
   <v type="int" >       48       75       76       95      215 </v>
   <v type="int" >       48       75       76      196      215 </v>
   <v type="int" >       48       75       94      214      215 </v>
   <v type="int" >       48       75      195      214      215 </v>
   <v type="int" >       48       75      195      196      215 </v>
   <v type="int" >       48       76       95       96      216 </v>
   <v type="int" >       48       76       77       96      216 </v>
   <v type="int" >       48       76       77      197      216 </v>
   <v type="int" >       48       76       95      215      216 </v>
   <v type="int" >       48       76      196      215      216 </v>
   <v type="int" >       48       76      196      197      216 </v>
   <v type="int" >       48       77       96       97      217 </v>
   <v type="int" >       48       77       78       97      217 </v>
   <v type="int" >       48       77       78      198      217 </v>
   <v type="int" >       48       77       96      216      217 </v>
   <v type="int" >       48       77      197      216      217 </v>
   <v type="int" >       48       77      197      198      217 </v>
   <v type="int" >       24       78       78       97      218 </v>
   <v type="int" >       24       78       78       79      218 </v>
   <v type="int" >       48       78       79      199      218 </v>
   <v type="int" >       48       78       97      217      218 </v>
   <v type="int" >       48       78      198      217      218 </v>
   <v type="int" >       48       78      198      199      218 </v>
   <v type="int" >       24       79      199      199      218 </v>
   <v type="int" >       24       79      199      199      200 </v>
   <v type="int" >       24       80       81       81       98 </v>
   <v type="int" >       24       80       81       81      201 </v>
   <v type="int" >       48       81       98       99      219 </v>
   <v type="int" >       48       81       82       99      219 </v>
   <v type="int" >       48       81       82      202      219 </v>
   <v type="int" >       24       81       81       98      219 </v>
   <v type="int" >       24       81       81      201      219 </v>
   <v type="int" >       48       81      201      202      219 </v>
   <v type="int" >       48       82       99      100      220 </v>
   <v type="int" >       48       82       83      100      220 </v>
   <v type="int" >       48       82       83      203      220 </v>
   <v type="int" >       48       82       99      219      220 </v>
   <v type="int" >       48       82      202      219      220 </v>
   <v type="int" >       48       82      202      203      220 </v>
   <v type="int" >       48       83      100      101      221 </v>
   <v type="int" >       48       83       84      101      221 </v>
   <v type="int" >       48       83       84      204      221 </v>
   <v type="int" >       48       83      100      220      221 </v>
   <v type="int" >       48       83      203      220      221 </v>
   <v type="int" >       48       83      203      204      221 </v>
   <v type="int" >       48       84      101      102      222 </v>
   <v type="int" >       48       84       85      102      222 </v>
   <v type="int" >       48       84       85      205      222 </v>
   <v type="int" >       48       84      101      221      222 </v>
   <v type="int" >       48       84      204      221      222 </v>
   <v type="int" >       48       84      204      205      222 </v>
   <v type="int" >       48       85      102      103      223 </v>
   <v type="int" >       48       85       86      103      223 </v>
   <v type="int" >       48       85       86      206      223 </v>
   <v type="int" >       48       85      102      222      223 </v>
   <v type="int" >       48       85      205      222      223 </v>
   <v type="int" >       48       85      205      206      223 </v>
   <v type="int" >       48       86      103      104      224 </v>
   <v type="int" >       48       86       87      104      224 </v>
   <v type="int" >       48       86       87      207      224 </v>
   <v type="int" >       48       86      103      223      224 </v>
   <v type="int" >       48       86      206      223      224 </v>
   <v type="int" >       48       86      206      207      224 </v>
   <v type="int" >       48       87      104      105      225 </v>
   <v type="int" >       48       87       88      105      225 </v>
   <v type="int" >       48       87       88      208      225 </v>
   <v type="int" >       48       87      104      224      225 </v>
   <v type="int" >       48       87      207      224      225 </v>
   <v type="int" >       48       87      207      208      225 </v>
   <v type="int" >       48       88      105      106      226 </v>
   <v type="int" >       48       88       89      106      226 </v>
   <v type="int" >       48       88       89      209      226 </v>
   <v type="int" >       48       88      105      225      226 </v>
   <v type="int" >       48       88      208      225      226 </v>
   <v type="int" >       48       88      208      209      226 </v>
   <v type="int" >       48       89      106      107      227 </v>
   <v type="int" >       48       89       90      107      227 </v>
   <v type="int" >       48       89       90      210      227 </v>
   <v type="int" >       48       89      106      226      227 </v>
   <v type="int" >       48       89      209      226      227 </v>
   <v type="int" >       48       89      209      210      227 </v>
   <v type="int" >       48       90      107      108      228 </v>
   <v type="int" >       48       90       91      108      228 </v>
   <v type="int" >       48       90       91      211      228 </v>
   <v type="int" >       48       90      107      227      228 </v>
   <v type="int" >       48       90      210      227      228 </v>
   <v type="int" >       48       90      210      211      228 </v>
   <v type="int" >       48       91      108      109      229 </v>
   <v type="int" >       48       91       92      109      229 </v>
   <v type="int" >       48       91       92      212      229 </v>
   <v type="int" >       48       91      108      228      229 </v>
   <v type="int" >       48       91      211      228      229 </v>
   <v type="int" >       48       91      211      212      229 </v>
   <v type="int" >       48       92      109      110      230 </v>
   <v type="int" >       48       92       93      110      230 </v>
   <v type="int" >       48       92       93      213      230 </v>
   <v type="int" >       48       92      109      229      230 </v>
   <v type="int" >       48       92      212      229      230 </v>
   <v type="int" >       48       92      212      213      230 </v>
   <v type="int" >       48       93      110      111      231 </v>
   <v type="int" >       48       93       94      111      231 </v>
   <v type="int" >       48       93       94      214      231 </v>
   <v type="int" >       48       93      110      230      231 </v>
   <v type="int" >       48       93      213      230      231 </v>
   <v type="int" >       48       93      213      214      231 </v>
   <v type="int" >       48       94      111      112      232 </v>
   <v type="int" >       48       94       95      112      232 </v>
   <v type="int" >       48       94       95      215      232 </v>
   <v type="int" >       48       94      111      231      232 </v>
   <v type="int" >       48       94      214      231      232 </v>
   <v type="int" >       48       94      214      215      232 </v>
   <v type="int" >       48       95      112      113      233 </v>
   <v type="int" >       48       95       96      113      233 </v>
   <v type="int" >       48       95       96      216      233 </v>
   <v type="int" >       48       95      112      232      233 </v>
   <v type="int" >       48       95      215      232      233 </v>
   <v type="int" >       48       95      215      216      233 </v>
   <v type="int" >       24       96       96      113      234 </v>
   <v type="int" >       24       96       96       97      234 </v>
   <v type="int" >       48       96       97      217      234 </v>
   <v type="int" >       48       96      113      233      234 </v>
   <v type="int" >       48       96      216      233      234 </v>
   <v type="int" >       48       96      216      217      234 </v>
   <v type="int" >       24       97      217      217      234 </v>
   <v type="int" >       24       97      217      217      218 </v>
   <v type="int" >       24       98       99       99      114 </v>
   <v type="int" >       24       98       99       99      219 </v>
   <v type="int" >       48       99      114      115      235 </v>
   <v type="int" >       48       99      100      115      235 </v>
   <v type="int" >       48       99      100      220      235 </v>
   <v type="int" >       24       99       99      114      235 </v>
   <v type="int" >       24       99       99      219      235 </v>
   <v type="int" >       48       99      219      220      235 </v>
   <v type="int" >       48      100      115      116      236 </v>
   <v type="int" >       48      100      101      116      236 </v>
   <v type="int" >       48      100      101      221      236 </v>
   <v type="int" >       48      100      115      235      236 </v>
   <v type="int" >       48      100      220      235      236 </v>
   <v type="int" >       48      100      220      221      236 </v>
   <v type="int" >       48      101      116      117      237 </v>
   <v type="int" >       48      101      102      117      237 </v>
   <v type="int" >       48      101      102      222      237 </v>
   <v type="int" >       48      101      116      236      237 </v>
   <v type="int" >       48      101      221      236      237 </v>
   <v type="int" >       48      101      221      222      237 </v>
   <v type="int" >       48      102      117      118      238 </v>
   <v type="int" >       48      102      103      118      238 </v>
   <v type="int" >       48      102      103      223      238 </v>
   <v type="int" >       48      102      117      237      238 </v>
   <v type="int" >       48      102      222      237      238 </v>
   <v type="int" >       48      102      222      223      238 </v>
   <v type="int" >       48      103      118      119      239 </v>
   <v type="int" >       48      103      104      119      239 </v>
   <v type="int" >       48      103      104      224      239 </v>
   <v type="int" >       48      103      118      238      239 </v>
   <v type="int" >       48      103      223      238      239 </v>
   <v type="int" >       48      103      223      224      239 </v>
   <v type="int" >       48      104      119      120      240 </v>
   <v type="int" >       48      104      105      120      240 </v>
   <v type="int" >       48      104      105      225      240 </v>
   <v type="int" >       48      104      119      239      240 </v>
   <v type="int" >       48      104      224      239      240 </v>
   <v type="int" >       48      104      224      225      240 </v>
   <v type="int" >       48      105      120      121      241 </v>
   <v type="int" >       48      105      106      121      241 </v>
   <v type="int" >       48      105      106      226      241 </v>
   <v type="int" >       48      105      120      240      241 </v>
   <v type="int" >       48      105      225      240      241 </v>
   <v type="int" >       48      105      225      226      241 </v>
   <v type="int" >       48      106      121      122      242 </v>
   <v type="int" >       48      106      107      122      242 </v>
   <v type="int" >       48      106      107      227      242 </v>
   <v type="int" >       48      106      121      241      242 </v>
[...]
       <r>    15.1187     0.5594    10.1953 </r>
       <r>    15.1530     0.5564    10.2144 </r>
       <r>    15.1872     0.5554    10.2335 </r>
       <r>    15.2215     0.5547    10.2525 </r>
       <r>    15.2558     0.5545    10.2715 </r>
       <r>    15.2900     0.5552    10.2905 </r>
       <r>    15.3243     0.5615    10.3096 </r>
       <r>    15.3586     0.5676    10.3290 </r>
       <r>    15.3928     0.5796    10.3486 </r>
       <r>    15.4271     0.5882    10.3687 </r>
       <r>    15.4614     0.5797    10.3886 </r>
       <r>    15.4956     0.5864    10.4086 </r>
       <r>    15.5299     0.5949    10.4288 </r>
       <r>    15.5642     0.6032    10.4493 </r>
       <r>    15.5984     0.6113    10.4702 </r>
       <r>    15.6327     0.6220    10.4913 </r>
       <r>    15.6670     0.6356    10.5128 </r>
       <r>    15.7012     0.6477    10.5348 </r>
       <r>    15.7355     0.6601    10.5572 </r>
       <r>    15.7698     0.6689    10.5800 </r>
       <r>    15.8040     0.6757    10.6030 </r>
       <r>    15.8383     0.6946    10.6264 </r>
       <r>    15.8726     0.7686    10.6516 </r>
       <r>    15.9068     0.8003    10.6783 </r>
       <r>    15.9411     0.8494    10.7066 </r>
       <r>    15.9754     0.9013    10.7366 </r>
       <r>    16.0096     0.9497    10.7683 </r>
       <r>    16.0439     1.0321    10.8019 </r>
       <r>    16.0782     1.1439    10.8398 </r>
       <r>    16.1124     1.3366    10.8819 </r>
       <r>    16.1467     1.2871    10.9268 </r>
       <r>    16.1810     1.3028    10.9710 </r>
       <r>    16.2152     1.3154    11.0158 </r>
       <r>    16.2495     1.3242    11.0611 </r>
       <r>    16.2838     1.3365    11.1067 </r>
       <r>    16.3180     1.3386    11.1525 </r>
       <r>    16.3523     1.3343    11.1983 </r>
       <r>    16.3866     1.3415    11.2441 </r>
       <r>    16.4208     1.3679    11.2905 </r>
       <r>    16.4551     1.4262    11.3384 </r>
       <r>    16.4894     1.4107    11.3871 </r>
       <r>    16.5236     1.4323    11.4356 </r>
       <r>    16.5579     1.4852    11.4852 </r>
       <r>    16.5922     1.4626    11.5384 </r>
       <r>    16.6264     1.3752    11.5871 </r>
       <r>    16.6607     1.2752    11.6324 </r>
       <r>    16.6950     1.2971    11.6766 </r>
       <r>    16.7292     1.2145    11.7197 </r>
       <r>    16.7635     1.1770    11.7605 </r>
       <r>    16.7978     1.1757    11.8008 </r>
       <r>    16.8320     1.1938    11.8413 </r>
       <r>    16.8663     1.2384    11.8835 </r>
       <r>    16.9006     1.2132    11.9255 </r>
       <r>    16.9348     1.1763    11.9663 </r>
       <r>    16.9691     1.1533    12.0062 </r>
       <r>    17.0034     1.1395    12.0455 </r>
       <r>    17.0376     1.1324    12.0844 </r>
       <r>    17.0719     1.0999    12.1227 </r>
       <r>    17.1062     1.0613    12.1597 </r>
       <r>    17.1404     1.0563    12.1959 </r>
       <r>    17.1747     0.9476    12.2304 </r>
       <r>    17.2090     0.8499    12.2606 </r>
       <r>    17.2432     0.8630    12.2900 </r>
       <r>    17.2775     0.8707    12.3197 </r>
       <r>    17.3118     0.8795    12.3497 </r>
       <r>    17.3460     0.8879    12.3800 </r>
       <r>    17.3803     0.9060    12.4107 </r>
       <r>    17.4146     0.9020    12.4417 </r>
       <r>    17.4488     0.9022    12.4726 </r>
       <r>    17.4831     0.9043    12.5035 </r>
       <r>    17.5174     0.9245    12.5350 </r>
       <r>    17.5516     0.9160    12.5665 </r>
       <r>    17.5859     0.9255    12.5978 </r>
       <r>    17.6202     0.9088    12.6295 </r>
       <r>    17.6544     0.9668    12.6609 </r>
       <r>    17.6887     0.6698    12.6881 </r>
       <r>    17.7230     0.6316    12.7104 </r>
       <r>    17.7572     0.6083    12.7316 </r>
       <r>    17.7915     0.5890    12.7521 </r>
       <r>    17.8258     0.5739    12.7720 </r>
       <r>    17.8600     0.5606    12.7914 </r>
       <r>    17.8943     0.5478    12.8104 </r>
       <r>    17.9286     0.5342    12.8290 </r>
       <r>    17.9628     0.5233    12.8471 </r>
       <r>    17.9971     0.5137    12.8648 </r>
       <r>    18.0314     0.5047    12.8823 </r>
       <r>    18.0656     0.4966    12.8994 </r>
       <r>    18.0999     0.4891    12.9163 </r>
       <r>    18.1342     0.4819    12.9330 </r>
       <r>    18.1684     0.4752    12.9494 </r>
       <r>    18.2027     0.4692    12.9655 </r>
       <r>    18.2370     0.4638    12.9815 </r>
       <r>    18.2712     0.4584    12.9973 </r>
       <r>    18.3055     0.4528    13.0129 </r>
       <r>    18.3398     0.4471    13.0284 </r>
       <r>    18.3740     0.4414    13.0436 </r>
       <r>    18.4083     0.4349    13.0586 </r>
       <r>    18.4426     0.4289    13.0734 </r>
       <r>    18.4768     0.4238    13.0880 </r>
       <r>    18.5111     0.4190    13.1025 </r>
       <r>    18.5454     0.4145    13.1167 </r>
       <r>    18.5796     0.4102    13.1309 </r>
       <r>    18.6139     0.4062    13.1449 </r>
       <r>    18.6482     0.4026    13.1587 </r>
       <r>    18.6824     0.3989    13.1724 </r>
       <r>    18.7167     0.3951    13.1860 </r>
       <r>    18.7510     0.3913    13.1995 </r>
       <r>    18.7852     0.3877    13.2129 </r>
       <r>    18.8195     0.3843    13.2261 </r>
       <r>    18.8538     0.3809    13.2392 </r>
       <r>    18.8880     0.3773    13.2522 </r>
       <r>    18.9223     0.3731    13.2651 </r>
       <r>    18.9566     0.3689    13.2778 </r>
       <r>    18.9908     0.3652    13.2903 </r>
       <r>    19.0251     0.3618    13.3028 </r>
       <r>    19.0593     0.3589    13.3151 </r>
       <r>    19.0936     0.3565    13.3274 </r>
       <r>    19.1279     0.3540    13.3396 </r>
       <r>    19.1621     0.3513    13.3517 </r>
       <r>    19.1964     0.3486    13.3636 </r>
       <r>    19.2307     0.3459    13.3755 </r>
       <r>    19.2649     0.3432    13.3874 </r>
       <r>    19.2992     0.3406    13.3991 </r>
       <r>    19.3335     0.3379    13.4107 </r>
       <r>    19.3677     0.3352    13.4222 </r>
       <r>    19.4020     0.3327    13.4337 </r>
       <r>    19.4363     0.3303    13.4450 </r>
       <r>    19.4705     0.3281    13.4563 </r>
       <r>    19.5048     0.3259    13.4675 </r>
       <r>    19.5391     0.3242    13.4786 </r>
       <r>    19.5733     0.3223    13.4897 </r>
       <r>    19.6076     0.3203    13.5007 </r>
       <r>    19.6419     0.3181    13.5117 </r>
       <r>    19.6761     0.3159    13.5225 </r>
       <r>    19.7104     0.3138    13.5333 </r>
       <r>    19.7447     0.3119    13.5440 </r>
       <r>    19.7789     0.3102    13.5547 </r>
       <r>    19.8132     0.3080    13.5653 </r>
       <r>    19.8475     0.3059    13.5758 </r>
       <r>    19.8817     0.3043    13.5863 </r>
       <r>    19.9160     0.3039    13.5967 </r>
       <r>    19.9503     0.3048    13.6071 </r>
       <r>    19.9845     0.3043    13.6176 </r>
       <r>    20.0188     0.3186    13.6283 </r>
       <r>    20.0531     0.3276    13.6394 </r>
       <r>    20.0873     0.3370    13.6507 </r>
       <r>    20.1216     0.3876    13.6630 </r>
       <r>    20.1559     0.4020    13.6765 </r>
       <r>    20.1901     0.4222    13.6905 </r>
       <r>    20.2244     0.4439    13.7054 </r>
       <r>    20.2587     0.4657    13.7209 </r>
       <r>    20.2929     0.4902    13.7373 </r>
       <r>    20.3272     0.5108    13.7545 </r>
       <r>    20.3615     0.5301    13.7723 </r>
       <r>    20.3957     0.5490    13.7908 </r>
       <r>    20.4300     0.5697    13.8099 </r>
       <r>    20.4643     0.5981    13.8300 </r>
       <r>    20.4985     0.6392    13.8510 </r>
       <r>    20.5328     0.6947    13.8738 </r>
       <r>    20.5671     0.7443    13.8986 </r>
       <r>    20.6013     0.8458    13.9259 </r>
       <r>    20.6356     0.8286    13.9550 </r>
       <r>    20.6699     0.8494    13.9832 </r>
       <r>    20.7041     0.9137    14.0139 </r>
       <r>    20.7384     0.9267    14.0453 </r>
       <r>    20.7727     0.9536    14.0775 </r>
       <r>    20.8069     0.9937    14.1110 </r>
       <r>    20.8412     0.8961    14.1431 </r>
       <r>    20.8755     0.8624    14.1732 </r>
       <r>    20.9097     0.8567    14.2026 </r>
       <r>    20.9440     0.8656    14.2321 </r>
       <r>    20.9783     0.8818    14.2619 </r>
       <r>    21.0125     0.9814    14.2936 </r>
       <r>    21.0468     0.9972    14.3275 </r>
       <r>    21.0811     1.0134    14.3619 </r>
       <r>    21.1153     1.0254    14.3969 </r>
       <r>    21.1496     1.0477    14.4323 </r>
       <r>    21.1839     1.0886    14.4689 </r>
       <r>    21.2181     1.1286    14.5069 </r>
       <r>    21.2524     1.1627    14.5462 </r>
       <r>    21.2867     1.1932    14.5866 </r>
       <r>    21.3209     1.2790    14.6286 </r>
       <r>    21.3552     1.4284    14.6748 </r>
       <r>    21.3895     1.5002    14.7253 </r>
       <r>    21.4237     1.5209    14.7772 </r>
       <r>    21.4580     1.4927    14.8290 </r>
       <r>    21.4923     1.4806    14.8799 </r>
       <r>    21.5265     1.4670    14.9304 </r>
       <r>    21.5608     1.4521    14.9804 </r>
       <r>    21.5951     1.4402    15.0299 </r>
       <r>    21.6293     1.4354    15.0791 </r>
       <r>    21.6636     1.4153    15.1281 </r>
       <r>    21.6979     1.3912    15.1761 </r>
       <r>    21.7321     1.3824    15.2236 </r>
       <r>    21.7664     1.3833    15.2709 </r>
       <r>    21.8007     1.3779    15.3182 </r>
       <r>    21.8349     1.3608    15.3652 </r>
       <r>    21.8692     1.3338    15.4114 </r>
       <r>    21.9035     1.3301    15.4569 </r>
       <r>    21.9377     1.2791    15.5017 </r>
       <r>    21.9720     1.1658    15.5437 </r>
       <r>    22.0063     1.1146    15.5822 </r>
       <r>    22.0405     0.9570    15.6183 </r>
       <r>    22.0748     0.8296    15.6490 </r>
       <r>    22.1091     0.7704    15.6764 </r>
       <r>    22.1433     0.7174    15.7018 </r>
       <r>    22.1776     0.6696    15.7256 </r>
       <r>    22.2119     0.6412    15.7480 </r>
       <r>    22.2461     0.6163    15.7696 </r>
       <r>    22.2804     0.5968    15.7903 </r>
       <r>    22.3147     0.5812    15.8105 </r>
       <r>    22.3489     0.5713    15.8302 </r>
       <r>    22.3832     0.5625    15.8497 </r>
       <r>    22.4175     0.5592    15.8689 </r>
       <r>    22.4517     0.5580    15.8880 </r>
       <r>    22.4860     0.5571    15.9071 </r>
       <r>    22.5203     0.5568    15.9262 </r>
       <r>    22.5545     0.5565    15.9453 </r>
       <r>    22.5888     0.5567    15.9643 </r>
       <r>    22.6231     0.5554    15.9834 </r>
       <r>    22.6573     0.5550    16.0024 </r>
       <r>    22.6916     0.5577    16.0215 </r>
       <r>    22.7259     0.5551    16.0406 </r>
       <r>    22.7601     0.5537    16.0596 </r>
       <r>    22.7944     0.5538    16.0785 </r>
       <r>    22.8287     0.5556    16.0975 </r>
       <r>    22.8629     0.5634    16.1167 </r>
       <r>    22.8972     0.5750    16.1362 </r>
       <r>    22.9315     0.5886    16.1561 </r>
       <r>    22.9657     0.6027    16.1765 </r>
       <r>    23.0000     0.6176    16.1974 </r>
       <r>    23.0343     0.6370    16.2189 </r>
       <r>    23.0685     0.6594    16.2411 </r>
       <r>    23.1028     0.6885    16.2642 </r>
       <r>    23.1371     0.7350    16.2884 </r>
       <r>    23.1713     0.7853    16.3146 </r>
       <r>    23.2056     0.8173    16.3421 </r>
       <r>    23.2399     0.8402    16.3706 </r>
       <r>    23.2741     0.8479    16.3995 </r>
       <r>    23.3084     0.8519    16.4286 </r>
       <r>    23.3427     0.8551    16.4579 </r>
       <r>    23.3769     0.8577    16.4872 </r>
       <r>    23.4112     0.8635    16.5167 </r>
       <r>    23.4455     0.8682    16.5463 </r>
       <r>    23.4797     0.8648    16.5760 </r>
       <r>    23.5140     0.8657    16.6057 </r>
       <r>    23.5483     0.8648    16.6354 </r>
       <r>    23.5825     0.8624    16.6649 </r>
       <r>    23.6168     0.8760    16.6946 </r>
       <r>    23.6511     0.8550    16.7244 </r>
       <r>    23.6853     0.8718    16.7537 </r>
       <r>    23.7196     0.8264    16.7830 </r>
       <r>    23.7538     0.7869    16.8106 </r>
       <r>    23.7881     0.7678    16.8373 </r>
       <r>    23.8224     0.7460    16.8632 </r>
       <r>    23.8566     0.7301    16.8885 </r>
       <r>    23.8909     0.7193    16.9133 </r>
       <r>    23.9252     0.7095    16.9378 </r>
       <r>    23.9594     0.7009    16.9619 </r>
       <r>    23.9937     0.6905    16.9858 </r>
       <r>    24.0280     0.6822    17.0093 </r>
       <r>    24.0622     0.6751    17.0325 </r>
       <r>    24.0965     0.6664    17.0555 </r>
       <r>    24.1308     0.6587    17.0782 </r>
       <r>    24.1650     0.6518    17.1007 </r>
       <r>    24.1993     0.6453    17.1229 </r>
       <r>    24.2336     0.6389    17.1449 </r>
       <r>    24.2678     0.6330    17.1667 </r>
       <r>    24.3021     0.6266    17.1883 </r>
       <r>    24.3364     0.6211    17.2096 </r>
       <r>    24.3706     0.6158    17.2308 </r>
       <r>    24.4049     0.6108    17.2518 </r>
       <r>    24.4392     0.6069    17.2727 </r>
       <r>    24.4734     0.6036    17.2934 </r>
       <r>    24.5077     0.6009    17.3141 </r>
       <r>    24.5420     0.5989    17.3346 </r>
       <r>    24.5762     0.5980    17.3551 </r>
       <r>    24.6105     0.5985    17.3756 </r>
       <r>    24.6448     0.6008    17.3962 </r>
       <r>    24.6790     0.6050    17.4168 </r>
       <r>    24.7133     0.6150    17.4377 </r>
       <r>    24.7476     0.6333    17.4591 </r>
       <r>    24.7818     0.6443    17.4811 </r>
       <r>    24.8161     0.6690    17.5035 </r>
       <r>    24.8504     0.6891    17.5268 </r>
       <r>    24.8846     0.7049    17.5507 </r>
       <r>    24.9189     0.7275    17.5753 </r>
       <r>    24.9532     0.7454    17.6005 </r>
       <r>    24.9874     0.7460    17.6262 </r>
       <r>    25.0217     0.6645    17.6504 </r>
       <r>    25.0560     0.6083    17.6725 </r>
       <r>    25.0902     0.5425    17.6920 </r>
       <r>    25.1245     0.5070    17.7100 </r>
       <r>    25.1588     0.4493    17.7263 </r>
       <r>    25.1930     0.4152    17.7411 </r>
       <r>    25.2273     0.3887    17.7549 </r>
       <r>    25.2616     0.3696    17.7679 </r>
       <r>    25.2958     0.3530    17.7802 </r>
       <r>    25.3301     0.3400    17.7921 </r>
       <r>    25.3644     0.3241    17.8035 </r>
       <r>    25.3986     0.3107    17.8144 </r>
       <r>    25.4329     0.2997    17.8248 </r>
       <r>    25.4672     0.2934    17.8350 </r>
       <r>    25.5014     0.2888    17.8449 </r>
       <r>    25.5357     0.2858    17.8548 </r>
       <r>    25.5700     0.2867    17.8645 </r>
       <r>    25.6042     0.3042    17.8746 </r>
       <r>    25.6385     0.3148    17.8853 </r>
       <r>    25.6728     0.3071    17.8960 </r>
       <r>    25.7070     0.2891    17.9062 </r>
       <r>    25.7413     0.2482    17.9155 </r>
       <r>    25.7756     0.2203    17.9235 </r>
       <r>    25.8098     0.2115    17.9308 </r>
       <r>    25.8441     0.2041    17.9380 </r>
       <r>    25.8784     0.1984    17.9448 </r>
       <r>    25.9126     0.1970    17.9516 </r>
       <r>    25.9469     0.1955    17.9583 </r>
       <r>    25.9812     0.1900    17.9650 </r>
       <r>    26.0154     0.1803    17.9713 </r>
       <r>    26.0497     0.1665    17.9773 </r>
       <r>    26.0840     0.1618    17.9827 </r>
       <r>    26.1182     0.1769    17.9888 </r>
       <r>    26.1525     0.1229    17.9940 </r>
       <r>    26.1868     0.0758    17.9974 </r>
       <r>    26.2210     0.0229    17.9991 </r>
       <r>    26.2553     0.0101    17.9996 </r>
       <r>    26.2896     0.0048    17.9998 </r>
       <r>    26.3238     0.0000    18.0000 </r>
       <r>    26.3581     0.0000    18.0000 </r>
       <r>    26.3924     0.0000    18.0000 </r>
       <r>    26.4266     0.0000    18.0000 </r>
       <r>    26.4609     0.0000    18.0000 </r>
       <r>    26.4952     0.0000    18.0000 </r>
       <r>    26.5294     0.0000    18.0000 </r>
       <r>    26.5637     0.0000    18.0000 </r>
       <r>    26.5980     0.0000    18.0000 </r>
       <r>    26.6322     0.0000    18.0000 </r>
       <r>    26.6665     0.0000    18.0000 </r>
       <r>    26.7008     0.0000    18.0000 </r>
       <r>    26.7350     0.0000    18.0000 </r>
       <r>    26.7693     0.0000    18.0000 </r>
       <r>    26.8036     0.0000    18.0000 </r>
       <r>    26.8378     0.0000    18.0000 </r>
       <r>    26.8721     0.0000    18.0000 </r>
       <r>    26.9064     0.0000    18.0000 </r>
       <r>    26.9406     0.0000    18.0000 </r>
       <r>    26.9749     0.0000    18.0000 </r>
       <r>    27.0092     0.0000    18.0000 </r>
       <r>    27.0434     0.0000    18.0000 </r>
       <r>    27.0777     0.0000    18.0000 </r>
       <r>    27.1120     0.0000    18.0000 </r>
       <r>    27.1462     0.0000    18.0000 </r>
       <r>    27.1805     0.0000    18.0000 </r>
       <r>    27.2148     0.0000    18.0000 </r>
       <r>    27.2490     0.0000    18.0000 </r>
       <r>    27.2833     0.0000    18.0000 </r>
       <r>    27.3176     0.0000    18.0000 </r>
       <r>    27.3518     0.0000    18.0000 </r>
       <r>    27.3861     0.0000    18.0000 </r>
       <r>    27.4204     0.0000    18.0000 </r>
       <r>    27.4546     0.0000    18.0000 </r>
       <r>    27.4889     0.0000    18.0000 </r>
       <r>    27.5232     0.0000    18.0000 </r>
       <r>    27.5574     0.0000    18.0000 </r>
       <r>    27.5917     0.0000    18.0000 </r>
       <r>    27.6260     0.0000    18.0000 </r>
       <r>    27.6602     0.0000    18.0000 </r>
       <r>    27.6945     0.0000    18.0000 </r>
       <r>    27.7288     0.0000    18.0000 </r>
       <r>    27.7630     0.0000    18.0000 </r>
       <r>    27.7973     0.0000    18.0000 </r>
       <r>    27.8316     0.0000    18.0000 </r>
       <r>    27.8658     0.0000    18.0000 </r>
       <r>    27.9001     0.0000    18.0000 </r>
       <r>    27.9344     0.0000    18.0000 </r>
       <r>    27.9686     0.0000    18.0000 </r>
       <r>    28.0029     0.0000    18.0000 </r>
       <r>    28.0372     0.0000    18.0000 </r>
       <r>    28.0714     0.0000    18.0000 </r>
       <r>    28.1057     0.0000    18.0000 </r>
       <r>    28.1400     0.0000    18.0000 </r>
       <r>    28.1742     0.0000    18.0000 </r>
       <r>    28.2085     0.0000    18.0000 </r>
       <r>    28.2428     0.0000    18.0000 </r>
       <r>    28.2770     0.0000    18.0000 </r>
       <r>    28.3113     0.0000    18.0000 </r>
       <r>    28.3456     0.0000    18.0000 </r>
       <r>    28.3798     0.0000    18.0000 </r>
       <r>    28.4141     0.0000    18.0000 </r>
       <r>    28.4483     0.0000    18.0000 </r>
       <r>    28.4826     0.0000    18.0000 </r>
      </set>
     </set>
    </array>
   </total>
  </dos>
 </calculation>
 <structure name="finalpos" >
  <crystal>
   <varray name="basis" >
    <v>       2.10635000       2.10635000       0.00000000 </v>
    <v>       0.00000000       2.10635000       2.10635000 </v>
    <v>       2.10635000       0.00000000       2.10635000 </v>
   </varray>
   <i name="volume">     18.69052958 </i>
   <varray name="rec_basis" >
    <v>       0.23737745       0.23737745      -0.23737745 </v>
    <v>      -0.23737745       0.23737745       0.23737745 </v>
    <v>       0.23737745      -0.23737745       0.23737745 </v>
   </varray>
  </crystal>
  <varray name="positions" >
   <v>       0.00000000       0.00000000       0.00000000 </v>
   <v>       0.50000000       0.50000000       0.50000000 </v>
  </varray>
 </structure>
</modeling>
