Mg1O1                                   
           1
     2.106350    2.106350    0.000000
     0.000000    2.106350    2.106350
     2.106350    0.000000    2.106350
   Mg   O 
   1   1
Direct configuration=     1
   0.00000000  0.00000000  0.00000000
   0.50000000  0.50000000  0.50000000
