 vasp.5.4.1 24Jun15 (build Dec 08 2018 00:28:02) complex                        
  
 executed on          pkvasp5.4.1 date 2023.10.02  08:32:37
 running on   40 total cores
 distrk:  each k-point on   20 cores,    2 groups
 distr:  one band on NCORES_PER_BAND=   4 cores,    5 groups


--------------------------------------------------------------------------------------------------------


 INCAR:
 POTCAR:    PAW_PBE Mg 13Apr2007                  
 POTCAR:    PAW_PBE O 08Apr2002                   

 ----------------------------------------------------------------------------- 
|                                                                             |
|           W    W    AA    RRRRR   N    N  II  N    N   GGGG   !!!           |
|           W    W   A  A   R    R  NN   N  II  NN   N  G    G  !!!           |
|           W    W  A    A  R    R  N N  N  II  N N  N  G       !!!           |
|           W WW W  AAAAAA  RRRRR   N  N N  II  N  N N  G  GGG   !            |
|           WW  WW  A    A  R   R   N   NN  II  N   NN  G    G                |
|           W    W  A    A  R    R  N    N  II  N    N   GGGG   !!!           |
|                                                                             |
|      You have enabled k-point parallelism (KPAR>1).                         |
|      This developmental code was originally  written by Paul Kent at ORNL,  |
|      and carefully double checked in Vienna.                                |
|      GW as well as linear response parallelism added by Martijn Marsman     |
|      and Georg Kresse.                                                      |
|      Carefully verify results versus KPAR=1.                                |
|      Report problems to Paul Kent and Vienna.                               |
|                                                                             |
 ----------------------------------------------------------------------------- 

 POTCAR:    PAW_PBE Mg 13Apr2007                  
  local pseudopotential read in
  partial core-charges read in
  partial kinetic energy density read in
  atomic valenz-charges read in
  non local Contribution for L=           0  read in
    real space projection operators read in
  non local Contribution for L=           0  read in
    real space projection operators read in
  non local Contribution for L=           1  read in
    real space projection operators read in
  non local Contribution for L=           1  read in
    real space projection operators read in
  non local Contribution for L=           2  read in
    real space projection operators read in
    PAW grid and wavefunctions read in
 
   number of l-projection  operators is LMAX  =           5
   number of lm-projection operators is LMMAX =          13
 
 POTCAR:    PAW_PBE O 08Apr2002                   
  local pseudopotential read in
  partial core-charges read in
  partial kinetic energy density read in
  kinetic energy density of atom read in
  atomic valenz-charges read in
  non local Contribution for L=           0  read in
    real space projection operators read in
  non local Contribution for L=           0  read in
    real space projection operators read in
  non local Contribution for L=           1  read in
    real space projection operators read in
  non local Contribution for L=           1  read in
    real space projection operators read in
    PAW grid and wavefunctions read in
 
   number of l-projection  operators is LMAX  =           4
   number of lm-projection operators is LMMAX =           8
 
  PAW_PBE Mg 13Apr2007                  :
 energy of atom  1       EATOM=  -23.0369
 kinetic energy error for atom=    0.0001 (will be added to EATOM!!)
  PAW_PBE O 08Apr2002                   :
 energy of atom  2       EATOM= -432.3788
 kinetic energy error for atom=    0.1156 (will be added to EATOM!!)
 
 
 POSCAR: xyz: Mg1O1                              
  positions in direct lattice
  No initial velocities read in
 exchange correlation table for  LEXCH =        8
   RHO(1)=    0.500       N(1)  =     2000
   RHO(2)=  100.500       N(2)  =     4000
 


--------------------------------------------------------------------------------------------------------


 ion  position               nearest neighbor table
   1  0.000  0.000  0.000-   2 2.11   2 2.11   2 2.11   2 2.11   2 2.11   2 2.11
   2  0.500  0.500  0.500-   1 2.11   1 2.11   1 2.11   1 2.11   1 2.11   1 2.11
 
  LATTYP: Found a face centered cubic cell.
 ALAT       =     4.2127000000
  
  Lattice vectors:
  
 A1 = (   2.1063500000,   2.1063500000,   0.0000000000)
 A2 = (   0.0000000000,   2.1063500000,   2.1063500000)
 A3 = (   2.1063500000,   0.0000000000,   2.1063500000)


Analysis of symmetry for initial positions (statically):
=====================================================================
 Subroutine PRICEL returns:
 Original cell was already a primitive cell.
 

 Routine SETGRP: Setting up the symmetry group for a 
 face centered cubic supercell.


 Subroutine GETGRP returns: Found 48 space group operations
 (whereof 48 operations were pure point group operations)
 out of a pool of 48 trial point group operations.


The static configuration has the point symmetry O_h .


Analysis of symmetry for dynamics (positions and initial velocities):
=====================================================================
 Subroutine PRICEL returns:
 Original cell was already a primitive cell.
 

 Routine SETGRP: Setting up the symmetry group for a 
 face centered cubic supercell.


 Subroutine GETGRP returns: Found 48 space group operations
 (whereof 48 operations were pure point group operations)
 out of a pool of 48 trial point group operations.


The dynamic configuration has the point symmetry O_h .


 Subroutine INISYM returns: Found 48 space group operations
 (whereof 48 operations are pure point group operations),
 and found     1 'primitive' translations

 
 
 KPOINTS: Automatic mesh                          

Automatic generation of k-mesh.
Space group operators:
 irot       det(A)        alpha          n_x          n_y          n_z        tau_x        tau_y        tau_z
    1     1.000000     0.000001     1.000000     0.000000     0.000000     0.000000     0.000000     0.000000
    2    -1.000000     0.000001     1.000000     0.000000     0.000000     0.000000     0.000000     0.000000
    3     1.000000   120.000000    -0.577350    -0.577350    -0.577350     0.000000     0.000000     0.000000
    4    -1.000000   120.000000    -0.577350    -0.577350    -0.577350     0.000000     0.000000     0.000000
    5     1.000000   120.000000     0.577350     0.577350     0.577350     0.000000     0.000000     0.000000
    6    -1.000000   120.000000     0.577350     0.577350     0.577350     0.000000     0.000000     0.000000
    7     1.000000    90.000000     0.000000    -1.000000     0.000000     0.000000     0.000000     0.000000
    8    -1.000000    90.000000     0.000000    -1.000000     0.000000     0.000000     0.000000     0.000000
    9     1.000000   180.000000     0.707107     0.707107     0.000000     0.000000     0.000000     0.000000
   10    -1.000000   180.000000     0.707107     0.707107     0.000000     0.000000     0.000000     0.000000
   11     1.000000    90.000000     1.000000     0.000000     0.000000     0.000000     0.000000     0.000000
   12    -1.000000    90.000000     1.000000     0.000000     0.000000     0.000000     0.000000     0.000000
   13     1.000000   180.000000     0.000000     1.000000     0.000000     0.000000     0.000000     0.000000
   14    -1.000000   180.000000     0.000000     1.000000     0.000000     0.000000     0.000000     0.000000
   15     1.000000   120.000000     0.577350     0.577350    -0.577350     0.000000     0.000000     0.000000
   16    -1.000000   120.000000     0.577350     0.577350    -0.577350     0.000000     0.000000     0.000000
   17     1.000000   120.000000     0.577350    -0.577350    -0.577350     0.000000     0.000000     0.000000
   18    -1.000000   120.000000     0.577350    -0.577350    -0.577350     0.000000     0.000000     0.000000
   19     1.000000    90.000000     0.000000     1.000000     0.000000     0.000000     0.000000     0.000000
   20    -1.000000    90.000000     0.000000     1.000000     0.000000     0.000000     0.000000     0.000000
   21     1.000000    90.000000     0.000000     0.000000    -1.000000     0.000000     0.000000     0.000000
   22    -1.000000    90.000000     0.000000     0.000000    -1.000000     0.000000     0.000000     0.000000
   23     1.000000   180.000000     0.000000     0.707107     0.707107     0.000000     0.000000     0.000000
   24    -1.000000   180.000000     0.000000     0.707107     0.707107     0.000000     0.000000     0.000000
   25     1.000000   120.000000    -0.577350     0.577350     0.577350     0.000000     0.000000     0.000000
   26    -1.000000   120.000000    -0.577350     0.577350     0.577350     0.000000     0.000000     0.000000
   27     1.000000   120.000000    -0.577350     0.577350    -0.577350     0.000000     0.000000     0.000000
   28    -1.000000   120.000000    -0.577350     0.577350    -0.577350     0.000000     0.000000     0.000000
   29     1.000000   180.000000     0.000000     0.000000     1.000000     0.000000     0.000000     0.000000
   30    -1.000000   180.000000     0.000000     0.000000     1.000000     0.000000     0.000000     0.000000
   31     1.000000    90.000000    -1.000000     0.000000     0.000000     0.000000     0.000000     0.000000
   32    -1.000000    90.000000    -1.000000     0.000000     0.000000     0.000000     0.000000     0.000000
   33     1.000000   180.000000     0.707107     0.000000     0.707107     0.000000     0.000000     0.000000
   34    -1.000000   180.000000     0.707107     0.000000     0.707107     0.000000     0.000000     0.000000
   35     1.000000    90.000000     0.000000     0.000000     1.000000     0.000000     0.000000     0.000000
   36    -1.000000    90.000000     0.000000     0.000000     1.000000     0.000000     0.000000     0.000000
   37     1.000000   120.000000    -0.577350    -0.577350     0.577350     0.000000     0.000000     0.000000
   38    -1.000000   120.000000    -0.577350    -0.577350     0.577350     0.000000     0.000000     0.000000
   39     1.000000   180.000000     1.000000     0.000000     0.000000     0.000000     0.000000     0.000000
   40    -1.000000   180.000000     1.000000     0.000000     0.000000     0.000000     0.000000     0.000000
   41     1.000000   120.000000     0.577350    -0.577350     0.577350     0.000000     0.000000     0.000000
   42    -1.000000   120.000000     0.577350    -0.577350     0.577350     0.000000     0.000000     0.000000
   43     1.000000   180.000000     0.707107    -0.707107     0.000000     0.000000     0.000000     0.000000
   44    -1.000000   180.000000     0.707107    -0.707107     0.000000     0.000000     0.000000     0.000000
   45     1.000000   180.000000     0.707107     0.000000    -0.707107     0.000000     0.000000     0.000000
   46    -1.000000   180.000000     0.707107     0.000000    -0.707107     0.000000     0.000000     0.000000
   47     1.000000   180.000000     0.000000    -0.707107     0.707107     0.000000     0.000000     0.000000
   48    -1.000000   180.000000     0.000000    -0.707107     0.707107     0.000000     0.000000     0.000000
 
 Subroutine IBZKPT returns following result:
 ===========================================
 
 Found    120 irreducible k-points:
 
 Following reciprocal coordinates:
            Coordinates               Weight
  0.000000  0.000000  0.000000      1.000000
  0.066667  0.000000  0.000000      8.000000
  0.133333  0.000000  0.000000      8.000000
  0.200000  0.000000  0.000000      8.000000
  0.266667  0.000000  0.000000      8.000000
  0.333333  0.000000  0.000000      8.000000
  0.400000  0.000000  0.000000      8.000000
  0.466667  0.000000  0.000000      8.000000
  0.066667  0.066667  0.000000      6.000000
  0.133333  0.066667  0.000000     24.000000
  0.200000  0.066667  0.000000     24.000000
  0.266667  0.066667  0.000000     24.000000
  0.333333  0.066667  0.000000     24.000000
  0.400000  0.066667  0.000000     24.000000
  0.466667  0.066667  0.000000     24.000000
 -0.466667  0.066667  0.000000     24.000000
 -0.400000  0.066667  0.000000     24.000000
 -0.333333  0.066667  0.000000     24.000000
 -0.266667  0.066667  0.000000     24.000000
 -0.200000  0.066667  0.000000     24.000000
 -0.133333  0.066667  0.000000     24.000000
 -0.066667  0.066667  0.000000     12.000000
  0.133333  0.133333  0.000000      6.000000
  0.200000  0.133333  0.000000     24.000000
  0.266667  0.133333  0.000000     24.000000
  0.333333  0.133333  0.000000     24.000000
  0.400000  0.133333  0.000000     24.000000
  0.466667  0.133333  0.000000     24.000000
 -0.466667  0.133333  0.000000     24.000000
 -0.400000  0.133333  0.000000     24.000000
 -0.333333  0.133333  0.000000     24.000000
 -0.266667  0.133333  0.000000     24.000000
 -0.200000  0.133333  0.000000     24.000000
 -0.133333  0.133333  0.000000     12.000000
  0.200000  0.200000  0.000000      6.000000
  0.266667  0.200000  0.000000     24.000000
  0.333333  0.200000  0.000000     24.000000
  0.400000  0.200000  0.000000     24.000000
  0.466667  0.200000  0.000000     24.000000
 -0.466667  0.200000  0.000000     24.000000
 -0.400000  0.200000  0.000000     24.000000
 -0.333333  0.200000  0.000000     24.000000
 -0.266667  0.200000  0.000000     24.000000
 -0.200000  0.200000  0.000000     12.000000
  0.266667  0.266667  0.000000      6.000000
  0.333333  0.266667  0.000000     24.000000
  0.400000  0.266667  0.000000     24.000000
  0.466667  0.266667  0.000000     24.000000
 -0.466667  0.266667  0.000000     24.000000
 -0.400000  0.266667  0.000000     24.000000
 -0.333333  0.266667  0.000000     24.000000
 -0.266667  0.266667  0.000000     12.000000
  0.333333  0.333333  0.000000      6.000000
  0.400000  0.333333  0.000000     24.000000
  0.466667  0.333333  0.000000     24.000000
 -0.466667  0.333333  0.000000     24.000000
 -0.400000  0.333333  0.000000     24.000000
 -0.333333  0.333333  0.000000     12.000000
  0.400000  0.400000  0.000000      6.000000
  0.466667  0.400000  0.000000     24.000000
 -0.466667  0.400000  0.000000     24.000000
 -0.400000  0.400000  0.000000     12.000000
  0.466667  0.466667  0.000000      6.000000
 -0.466667  0.466667  0.000000     12.000000
  0.200000  0.133333  0.066667     24.000000
  0.266667  0.133333  0.066667     48.000000
  0.333333  0.133333  0.066667     48.000000
  0.400000  0.133333  0.066667     48.000000
  0.466667  0.133333  0.066667     48.000000
 -0.466667  0.133333  0.066667     48.000000
  0.266667  0.200000  0.066667     24.000000
  0.333333  0.200000  0.066667     48.000000
  0.400000  0.200000  0.066667     48.000000
  0.466667  0.200000  0.066667     48.000000
 -0.466667  0.200000  0.066667     48.000000
 -0.400000  0.200000  0.066667     48.000000
 -0.333333  0.200000  0.066667     48.000000
 -0.266667  0.200000  0.066667     48.000000
 -0.200000  0.200000  0.066667     48.000000
 -0.133333  0.200000  0.066667     24.000000
  0.333333  0.266667  0.066667     24.000000
  0.400000  0.266667  0.066667     48.000000
  0.466667  0.266667  0.066667     48.000000
 -0.466667  0.266667  0.066667     48.000000
 -0.400000  0.266667  0.066667     48.000000
 -0.333333  0.266667  0.066667     48.000000
 -0.266667  0.266667  0.066667     48.000000
 -0.200000  0.266667  0.066667     24.000000
  0.400000  0.333333  0.066667     24.000000
  0.466667  0.333333  0.066667     48.000000
 -0.466667  0.333333  0.066667     48.000000
 -0.400000  0.333333  0.066667     48.000000
 -0.333333  0.333333  0.066667     48.000000
 -0.266667  0.333333  0.066667     24.000000
  0.466667  0.400000  0.066667     24.000000
 -0.466667  0.400000  0.066667     48.000000
 -0.400000  0.400000  0.066667     48.000000
 -0.333333  0.400000  0.066667     24.000000
 -0.466667  0.466667  0.066667     24.000000
 -0.400000  0.466667  0.066667     24.000000
  0.400000  0.266667  0.133333     24.000000
  0.466667  0.266667  0.133333     48.000000
 -0.466667  0.266667  0.133333     48.000000
 -0.400000  0.266667  0.133333     48.000000
  0.466667  0.333333  0.133333     24.000000
 -0.466667  0.333333  0.133333     48.000000
 -0.400000  0.333333  0.133333     48.000000
 -0.333333  0.333333  0.133333     48.000000
 -0.266667  0.333333  0.133333     48.000000
 -0.200000  0.333333  0.133333     24.000000
 -0.466667  0.400000  0.133333     24.000000
 -0.400000  0.400000  0.133333     48.000000
 -0.333333  0.400000  0.133333     48.000000
 -0.266667  0.400000  0.133333     24.000000
 -0.400000  0.466667  0.133333     24.000000
 -0.333333  0.466667  0.133333     24.000000
 -0.400000  0.400000  0.200000     24.000000
 -0.333333  0.400000  0.200000     48.000000
 -0.333333  0.466667  0.200000     24.000000
 -0.266667  0.466667  0.200000     24.000000
 
 Following cartesian coordinates:
            Coordinates               Weight
  0.000000  0.000000  0.000000      1.000000
  0.015825  0.015825 -0.015825      8.000000
  0.031650  0.031650 -0.031650      8.000000
  0.047475  0.047475 -0.047475      8.000000
  0.063301  0.063301 -0.063301      8.000000
  0.079126  0.079126 -0.079126      8.000000
  0.094951  0.094951 -0.094951      8.000000
  0.110776  0.110776 -0.110776      8.000000
  0.000000  0.031650  0.000000      6.000000
  0.015825  0.047475 -0.015825     24.000000
  0.031650  0.063301 -0.031650     24.000000
  0.047475  0.079126 -0.047475     24.000000
  0.063301  0.094951 -0.063301     24.000000
  0.079126  0.110776 -0.079126     24.000000
  0.094951  0.126601 -0.094951     24.000000
 -0.126601 -0.094951  0.126601     24.000000
 -0.110776 -0.079126  0.110776     24.000000
 -0.094951 -0.063301  0.094951     24.000000
 -0.079126 -0.047475  0.079126     24.000000
 -0.063301 -0.031650  0.063301     24.000000
 -0.047475 -0.015825  0.047475     24.000000
 -0.031650  0.000000  0.031650     12.000000
  0.000000  0.063301  0.000000      6.000000
  0.015825  0.079126 -0.015825     24.000000
  0.031650  0.094951 -0.031650     24.000000
  0.047475  0.110776 -0.047475     24.000000
  0.063301  0.126601 -0.063301     24.000000
  0.079126  0.142426 -0.079126     24.000000
 -0.142426 -0.079126  0.142426     24.000000
 -0.126601 -0.063301  0.126601     24.000000
 -0.110776 -0.047475  0.110776     24.000000
 -0.094951 -0.031650  0.094951     24.000000
 -0.079126 -0.015825  0.079126     24.000000
 -0.063301  0.000000  0.063301     12.000000
  0.000000  0.094951  0.000000      6.000000
  0.015825  0.110776 -0.015825     24.000000
  0.031650  0.126601 -0.031650     24.000000
  0.047475  0.142426 -0.047475     24.000000
  0.063301  0.158252 -0.063301     24.000000
 -0.158252 -0.063301  0.158252     24.000000
 -0.142426 -0.047475  0.142426     24.000000
 -0.126601 -0.031650  0.126601     24.000000
 -0.110776 -0.015825  0.110776     24.000000
 -0.094951  0.000000  0.094951     12.000000
  0.000000  0.126601  0.000000      6.000000
  0.015825  0.142426 -0.015825     24.000000
  0.031650  0.158252 -0.031650     24.000000
  0.047475  0.174077 -0.047475     24.000000
 -0.174077 -0.047475  0.174077     24.000000
 -0.158252 -0.031650  0.158252     24.000000
 -0.142426 -0.015825  0.142426     24.000000
 -0.126601  0.000000  0.126601     12.000000
  0.000000  0.158252  0.000000      6.000000
  0.015825  0.174077 -0.015825     24.000000
  0.031650  0.189902 -0.031650     24.000000
 -0.189902 -0.031650  0.189902     24.000000
 -0.174077 -0.015825  0.174077     24.000000
 -0.158252  0.000000  0.158252     12.000000
  0.000000  0.189902  0.000000      6.000000
  0.015825  0.205727 -0.015825     24.000000
 -0.205727 -0.015825  0.205727     24.000000
 -0.189902  0.000000  0.189902     12.000000
  0.000000  0.221552  0.000000      6.000000
 -0.221552  0.000000  0.221552     12.000000
  0.031650  0.063301 -0.000000     24.000000
  0.047475  0.079126 -0.015825     48.000000
  0.063301  0.094951 -0.031650     48.000000
  0.079126  0.110776 -0.047475     48.000000
  0.094951  0.126601 -0.063301     48.000000
 -0.126601 -0.094951  0.158252     48.000000
  0.031650  0.094951  0.000000     24.000000
  0.047475  0.110776 -0.015825     48.000000
  0.063301  0.126601 -0.031650     48.000000
  0.079126  0.142426 -0.047475     48.000000
 -0.142426 -0.079126  0.174077     48.000000
 -0.126601 -0.063301  0.158252     48.000000
 -0.110776 -0.047475  0.142426     48.000000
 -0.094951 -0.031650  0.126601     48.000000
 -0.079126 -0.015825  0.110776     48.000000
 -0.063301  0.000000  0.094951     24.000000
  0.031650  0.126601 -0.000000     24.000000
  0.047475  0.142426 -0.015825     48.000000
  0.063301  0.158252 -0.031650     48.000000
 -0.158252 -0.063301  0.189902     48.000000
 -0.142426 -0.047475  0.174077     48.000000
 -0.126601 -0.031650  0.158252     48.000000
 -0.110776 -0.015825  0.142426     48.000000
 -0.094951 -0.000000  0.126601     24.000000
  0.031650  0.158252 -0.000000     24.000000
  0.047475  0.174077 -0.015825     48.000000
 -0.174077 -0.047475  0.205727     48.000000
 -0.158252 -0.031650  0.189902     48.000000
 -0.142426 -0.015825  0.174077     48.000000
 -0.126601  0.000000  0.158252     24.000000
  0.031650  0.189902  0.000000     24.000000
 -0.189902 -0.031650  0.221552     48.000000
 -0.174077 -0.015825  0.205727     48.000000
 -0.158252  0.000000  0.189902     24.000000
 -0.205727 -0.015825  0.237377     24.000000
 -0.189902 -0.000000  0.221552     24.000000
  0.063301  0.126601  0.000000     24.000000
  0.079126  0.142426 -0.015825     48.000000
 -0.142426 -0.079126  0.205727     48.000000
 -0.126601 -0.063301  0.189902     48.000000
  0.063301  0.158252 -0.000000     24.000000
 -0.158252 -0.063301  0.221552     48.000000
 -0.142426 -0.047475  0.205727     48.000000
 -0.126601 -0.031650  0.189902     48.000000
 -0.110776 -0.015825  0.174077     48.000000
 -0.094951  0.000000  0.158252     24.000000
 -0.174077 -0.047475  0.237377     24.000000
 -0.158252 -0.031650  0.221552     48.000000
 -0.142426 -0.015825  0.205727     48.000000
 -0.126601  0.000000  0.189902     24.000000
 -0.174077 -0.015825  0.237377     24.000000
 -0.158252 -0.000000  0.221552     24.000000
 -0.142426 -0.047475  0.237377     24.000000
 -0.126601 -0.031650  0.221552     48.000000
 -0.142426 -0.015825  0.237377     24.000000
 -0.126601  0.000000  0.221552     24.000000
 
 TETIRR: Found    484 inequivalent tetrahedra from    20250
 
 Subroutine IBZKPT_HF returns following result:
 ==============================================
 
 Found   3375 k-points in 1st BZ
 the following   3375 k-points will be used (e.g. in the exchange kernel)
 Following reciprocal coordinates:   # in IRBZ
  0.000000  0.000000  0.000000    0.00029630   1 t-inv F
  0.066667  0.000000  0.000000    0.00029630   2 t-inv F
  0.133333  0.000000  0.000000    0.00029630   3 t-inv F
  0.200000  0.000000  0.000000    0.00029630   4 t-inv F
  0.266667  0.000000  0.000000    0.00029630   5 t-inv F
  0.333333  0.000000  0.000000    0.00029630   6 t-inv F
  0.400000  0.000000  0.000000    0.00029630   7 t-inv F
  0.466667  0.000000  0.000000    0.00029630   8 t-inv F
  0.066667  0.066667  0.000000    0.00029630   9 t-inv F
  0.133333  0.066667  0.000000    0.00029630  10 t-inv F
  0.200000  0.066667  0.000000    0.00029630  11 t-inv F
  0.266667  0.066667  0.000000    0.00029630  12 t-inv F
  0.333333  0.066667  0.000000    0.00029630  13 t-inv F
  0.400000  0.066667  0.000000    0.00029630  14 t-inv F
  0.466667  0.066667  0.000000    0.00029630  15 t-inv F
 -0.466667  0.066667  0.000000    0.00029630  16 t-inv F
 -0.400000  0.066667  0.000000    0.00029630  17 t-inv F
 -0.333333  0.066667  0.000000    0.00029630  18 t-inv F
 -0.266667  0.066667  0.000000    0.00029630  19 t-inv F
 -0.200000  0.066667  0.000000    0.00029630  20 t-inv F
 -0.133333  0.066667  0.000000    0.00029630  21 t-inv F
 -0.066667  0.066667  0.000000    0.00029630  22 t-inv F
  0.133333  0.133333  0.000000    0.00029630  23 t-inv F
  0.200000  0.133333  0.000000    0.00029630  24 t-inv F
  0.266667  0.133333  0.000000    0.00029630  25 t-inv F
  0.333333  0.133333  0.000000    0.00029630  26 t-inv F
  0.400000  0.133333  0.000000    0.00029630  27 t-inv F
  0.466667  0.133333  0.000000    0.00029630  28 t-inv F
 -0.466667  0.133333  0.000000    0.00029630  29 t-inv F
 -0.400000  0.133333  0.000000    0.00029630  30 t-inv F
 -0.333333  0.133333  0.000000    0.00029630  31 t-inv F
 -0.266667  0.133333  0.000000    0.00029630  32 t-inv F
 -0.200000  0.133333  0.000000    0.00029630  33 t-inv F
 -0.133333  0.133333  0.000000    0.00029630  34 t-inv F
  0.200000  0.200000  0.000000    0.00029630  35 t-inv F
  0.266667  0.200000  0.000000    0.00029630  36 t-inv F
  0.333333  0.200000  0.000000    0.00029630  37 t-inv F
  0.400000  0.200000  0.000000    0.00029630  38 t-inv F
  0.466667  0.200000  0.000000    0.00029630  39 t-inv F
 -0.466667  0.200000  0.000000    0.00029630  40 t-inv F
 -0.400000  0.200000  0.000000    0.00029630  41 t-inv F
 -0.333333  0.200000  0.000000    0.00029630  42 t-inv F
 -0.266667  0.200000  0.000000    0.00029630  43 t-inv F
 -0.200000  0.200000  0.000000    0.00029630  44 t-inv F
  0.266667  0.266667  0.000000    0.00029630  45 t-inv F
  0.333333  0.266667  0.000000    0.00029630  46 t-inv F
  0.400000  0.266667  0.000000    0.00029630  47 t-inv F
  0.466667  0.266667  0.000000    0.00029630  48 t-inv F
 -0.466667  0.266667  0.000000    0.00029630  49 t-inv F
 -0.400000  0.266667  0.000000    0.00029630  50 t-inv F
 -0.333333  0.266667  0.000000    0.00029630  51 t-inv F
 -0.266667  0.266667  0.000000    0.00029630  52 t-inv F
  0.333333  0.333333  0.000000    0.00029630  53 t-inv F
  0.400000  0.333333  0.000000    0.00029630  54 t-inv F
  0.466667  0.333333  0.000000    0.00029630  55 t-inv F
 -0.466667  0.333333  0.000000    0.00029630  56 t-inv F
 -0.400000  0.333333  0.000000    0.00029630  57 t-inv F
 -0.333333  0.333333  0.000000    0.00029630  58 t-inv F
  0.400000  0.400000  0.000000    0.00029630  59 t-inv F
  0.466667  0.400000  0.000000    0.00029630  60 t-inv F
 -0.466667  0.400000  0.000000    0.00029630  61 t-inv F
 -0.400000  0.400000  0.000000    0.00029630  62 t-inv F
  0.466667  0.466667  0.000000    0.00029630  63 t-inv F
 -0.466667  0.466667  0.000000    0.00029630  64 t-inv F
  0.200000  0.133333  0.066667    0.00029630  65 t-inv F
  0.266667  0.133333  0.066667    0.00029630  66 t-inv F
  0.333333  0.133333  0.066667    0.00029630  67 t-inv F
  0.400000  0.133333  0.066667    0.00029630  68 t-inv F
  0.466667  0.133333  0.066667    0.00029630  69 t-inv F
 -0.466667  0.133333  0.066667    0.00029630  70 t-inv F
  0.266667  0.200000  0.066667    0.00029630  71 t-inv F
  0.333333  0.200000  0.066667    0.00029630  72 t-inv F
  0.400000  0.200000  0.066667    0.00029630  73 t-inv F
  0.466667  0.200000  0.066667    0.00029630  74 t-inv F
 -0.466667  0.200000  0.066667    0.00029630  75 t-inv F
 -0.400000  0.200000  0.066667    0.00029630  76 t-inv F
 -0.333333  0.200000  0.066667    0.00029630  77 t-inv F
 -0.266667  0.200000  0.066667    0.00029630  78 t-inv F
 -0.200000  0.200000  0.066667    0.00029630  79 t-inv F
 -0.133333  0.200000  0.066667    0.00029630  80 t-inv F
  0.333333  0.266667  0.066667    0.00029630  81 t-inv F
  0.400000  0.266667  0.066667    0.00029630  82 t-inv F
  0.466667  0.266667  0.066667    0.00029630  83 t-inv F
 -0.466667  0.266667  0.066667    0.00029630  84 t-inv F
 -0.400000  0.266667  0.066667    0.00029630  85 t-inv F
 -0.333333  0.266667  0.066667    0.00029630  86 t-inv F
 -0.266667  0.266667  0.066667    0.00029630  87 t-inv F
 -0.200000  0.266667  0.066667    0.00029630  88 t-inv F
  0.400000  0.333333  0.066667    0.00029630  89 t-inv F
  0.466667  0.333333  0.066667    0.00029630  90 t-inv F
 -0.466667  0.333333  0.066667    0.00029630  91 t-inv F
 -0.400000  0.333333  0.066667    0.00029630  92 t-inv F
 -0.333333  0.333333  0.066667    0.00029630  93 t-inv F
 -0.266667  0.333333  0.066667    0.00029630  94 t-inv F
  0.466667  0.400000  0.066667    0.00029630  95 t-inv F
 -0.466667  0.400000  0.066667    0.00029630  96 t-inv F
 -0.400000  0.400000  0.066667    0.00029630  97 t-inv F
 -0.333333  0.400000  0.066667    0.00029630  98 t-inv F
 -0.466667  0.466667  0.066667    0.00029630  99 t-inv F
 -0.400000  0.466667  0.066667    0.00029630 100 t-inv F
  0.400000  0.266667  0.133333    0.00029630 101 t-inv F
  0.466667  0.266667  0.133333    0.00029630 102 t-inv F
 -0.466667  0.266667  0.133333    0.00029630 103 t-inv F
 -0.400000  0.266667  0.133333    0.00029630 104 t-inv F
  0.466667  0.333333  0.133333    0.00029630 105 t-inv F
 -0.466667  0.333333  0.133333    0.00029630 106 t-inv F
 -0.400000  0.333333  0.133333    0.00029630 107 t-inv F
 -0.333333  0.333333  0.133333    0.00029630 108 t-inv F
 -0.266667  0.333333  0.133333    0.00029630 109 t-inv F
 -0.200000  0.333333  0.133333    0.00029630 110 t-inv F
 -0.466667  0.400000  0.133333    0.00029630 111 t-inv F
 -0.400000  0.400000  0.133333    0.00029630 112 t-inv F
 -0.333333  0.400000  0.133333    0.00029630 113 t-inv F
 -0.266667  0.400000  0.133333    0.00029630 114 t-inv F
 -0.400000  0.466667  0.133333    0.00029630 115 t-inv F
 -0.333333  0.466667  0.133333    0.00029630 116 t-inv F
 -0.400000  0.400000  0.200000    0.00029630 117 t-inv F
 -0.333333  0.400000  0.200000    0.00029630 118 t-inv F
 -0.333333  0.466667  0.200000    0.00029630 119 t-inv F
 -0.266667  0.466667  0.200000    0.00029630 120 t-inv F
 -0.066667  0.000000  0.000000    0.00029630   2 t-inv F
  0.000000  0.066667  0.000000    0.00029630   2 t-inv F
  0.000000 -0.066667  0.000000    0.00029630   2 t-inv F
  0.000000  0.000000  0.066667    0.00029630   2 t-inv F
  0.000000  0.000000 -0.066667    0.00029630   2 t-inv F
  0.066667  0.066667  0.066667    0.00029630   2 t-inv F
 -0.066667 -0.066667 -0.066667    0.00029630   2 t-inv F
 -0.133333  0.000000  0.000000    0.00029630   3 t-inv F
  0.000000  0.133333  0.000000    0.00029630   3 t-inv F
  0.000000 -0.133333  0.000000    0.00029630   3 t-inv F
  0.000000  0.000000  0.133333    0.00029630   3 t-inv F
  0.000000  0.000000 -0.133333    0.00029630   3 t-inv F
  0.133333  0.133333  0.133333    0.00029630   3 t-inv F
 -0.133333 -0.133333 -0.133333    0.00029630   3 t-inv F
 -0.200000  0.000000  0.000000    0.00029630   4 t-inv F
  0.000000  0.200000  0.000000    0.00029630   4 t-inv F
  0.000000 -0.200000  0.000000    0.00029630   4 t-inv F
  0.000000  0.000000  0.200000    0.00029630   4 t-inv F
  0.000000  0.000000 -0.200000    0.00029630   4 t-inv F
  0.200000  0.200000  0.200000    0.00029630   4 t-inv F
 -0.200000 -0.200000 -0.200000    0.00029630   4 t-inv F
 -0.266667  0.000000  0.000000    0.00029630   5 t-inv F
  0.000000  0.266667  0.000000    0.00029630   5 t-inv F
  0.000000 -0.266667  0.000000    0.00029630   5 t-inv F
  0.000000  0.000000  0.266667    0.00029630   5 t-inv F
  0.000000  0.000000 -0.266667    0.00029630   5 t-inv F
  0.266667  0.266667  0.266667    0.00029630   5 t-inv F
 -0.266667 -0.266667 -0.266667    0.00029630   5 t-inv F
 -0.333333  0.000000  0.000000    0.00029630   6 t-inv F
  0.000000  0.333333  0.000000    0.00029630   6 t-inv F
  0.000000 -0.333333  0.000000    0.00029630   6 t-inv F
  0.000000  0.000000  0.333333    0.00029630   6 t-inv F
  0.000000  0.000000 -0.333333    0.00029630   6 t-inv F
  0.333333  0.333333  0.333333    0.00029630   6 t-inv F
 -0.333333 -0.333333 -0.333333    0.00029630   6 t-inv F
 -0.400000  0.000000  0.000000    0.00029630   7 t-inv F
  0.000000  0.400000  0.000000    0.00029630   7 t-inv F
  0.000000 -0.400000  0.000000    0.00029630   7 t-inv F
  0.000000  0.000000  0.400000    0.00029630   7 t-inv F
  0.000000  0.000000 -0.400000    0.00029630   7 t-inv F
  0.400000  0.400000  0.400000    0.00029630   7 t-inv F
 -0.400000 -0.400000 -0.400000    0.00029630   7 t-inv F
 -0.466667  0.000000  0.000000    0.00029630   8 t-inv F
  0.000000  0.466667  0.000000    0.00029630   8 t-inv F
  0.000000 -0.466667  0.000000    0.00029630   8 t-inv F
  0.000000  0.000000  0.466667    0.00029630   8 t-inv F
  0.000000  0.000000 -0.466667    0.00029630   8 t-inv F
  0.466667  0.466667  0.466667    0.00029630   8 t-inv F
 -0.466667 -0.466667 -0.466667    0.00029630   8 t-inv F
 -0.066667 -0.066667  0.000000    0.00029630   9 t-inv F
  0.000000  0.066667  0.066667    0.00029630   9 t-inv F
  0.000000 -0.066667 -0.066667    0.00029630   9 t-inv F
  0.066667  0.000000  0.066667    0.00029630   9 t-inv F
 -0.066667  0.000000 -0.066667    0.00029630   9 t-inv F
 -0.133333 -0.066667  0.000000    0.00029630  10 t-inv F
  0.000000  0.133333  0.066667    0.00029630  10 t-inv F
  0.000000 -0.133333 -0.066667    0.00029630  10 t-inv F
  0.066667  0.000000  0.133333    0.00029630  10 t-inv F
 -0.066667  0.000000 -0.133333    0.00029630  10 t-inv F
  0.066667  0.066667 -0.066667    0.00029630  10 t-inv F
 -0.066667 -0.066667  0.066667    0.00029630  10 t-inv F
  0.133333  0.066667  0.133333    0.00029630  10 t-inv F
 -0.133333 -0.066667 -0.133333    0.00029630  10 t-inv F
  0.066667  0.133333  0.000000    0.00029630  10 t-inv F
 -0.066667 -0.133333  0.000000    0.00029630  10 t-inv F
  0.066667 -0.066667 -0.066667    0.00029630  10 t-inv F
 -0.066667  0.066667  0.066667    0.00029630  10 t-inv F
  0.133333  0.133333  0.066667    0.00029630  10 t-inv F
 -0.133333 -0.133333 -0.066667    0.00029630  10 t-inv F
  0.000000  0.066667  0.133333    0.00029630  10 t-inv F
  0.000000 -0.066667 -0.133333    0.00029630  10 t-inv F
 -0.066667  0.066667 -0.066667    0.00029630  10 t-inv F
  0.066667 -0.066667  0.066667    0.00029630  10 t-inv F
  0.066667  0.133333  0.133333    0.00029630  10 t-inv F
 -0.066667 -0.133333 -0.133333    0.00029630  10 t-inv F
  0.133333  0.000000  0.066667    0.00029630  10 t-inv F
 -0.133333  0.000000 -0.066667    0.00029630  10 t-inv F
 -0.200000 -0.066667  0.000000    0.00029630  11 t-inv F
  0.000000  0.200000  0.066667    0.00029630  11 t-inv F
  0.000000 -0.200000 -0.066667    0.00029630  11 t-inv F
  0.066667  0.000000  0.200000    0.00029630  11 t-inv F
 -0.066667  0.000000 -0.200000    0.00029630  11 t-inv F
  0.066667  0.066667 -0.133333    0.00029630  11 t-inv F
 -0.066667 -0.066667  0.133333    0.00029630  11 t-inv F
  0.200000  0.133333  0.200000    0.00029630  11 t-inv F
 -0.200000 -0.133333 -0.200000    0.00029630  11 t-inv F
  0.066667  0.200000  0.000000    0.00029630  11 t-inv F
 -0.066667 -0.200000  0.000000    0.00029630  11 t-inv F
  0.133333 -0.066667 -0.066667    0.00029630  11 t-inv F
 -0.133333  0.066667  0.066667    0.00029630  11 t-inv F
  0.200000  0.200000  0.133333    0.00029630  11 t-inv F
 -0.200000 -0.200000 -0.133333    0.00029630  11 t-inv F
  0.000000  0.066667  0.200000    0.00029630  11 t-inv F
  0.000000 -0.066667 -0.200000    0.00029630  11 t-inv F
 -0.066667  0.133333 -0.066667    0.00029630  11 t-inv F
  0.066667 -0.133333  0.066667    0.00029630  11 t-inv F
  0.133333  0.200000  0.200000    0.00029630  11 t-inv F
 -0.133333 -0.200000 -0.200000    0.00029630  11 t-inv F
  0.200000  0.000000  0.066667    0.00029630  11 t-inv F
 -0.200000  0.000000 -0.066667    0.00029630  11 t-inv F
 -0.266667 -0.066667  0.000000    0.00029630  12 t-inv F
  0.000000  0.266667  0.066667    0.00029630  12 t-inv F
  0.000000 -0.266667 -0.066667    0.00029630  12 t-inv F
  0.066667  0.000000  0.266667    0.00029630  12 t-inv F
 -0.066667  0.000000 -0.266667    0.00029630  12 t-inv F
  0.066667  0.066667 -0.200000    0.00029630  12 t-inv F
 -0.066667 -0.066667  0.200000    0.00029630  12 t-inv F
  0.266667  0.200000  0.266667    0.00029630  12 t-inv F
 -0.266667 -0.200000 -0.266667    0.00029630  12 t-inv F
  0.066667  0.266667  0.000000    0.00029630  12 t-inv F
 -0.066667 -0.266667  0.000000    0.00029630  12 t-inv F
  0.200000 -0.066667 -0.066667    0.00029630  12 t-inv F
 -0.200000  0.066667  0.066667    0.00029630  12 t-inv F
  0.266667  0.266667  0.200000    0.00029630  12 t-inv F
 -0.266667 -0.266667 -0.200000    0.00029630  12 t-inv F
  0.000000  0.066667  0.266667    0.00029630  12 t-inv F
  0.000000 -0.066667 -0.266667    0.00029630  12 t-inv F
 -0.066667  0.200000 -0.066667    0.00029630  12 t-inv F
  0.066667 -0.200000  0.066667    0.00029630  12 t-inv F
  0.200000  0.266667  0.266667    0.00029630  12 t-inv F
 -0.200000 -0.266667 -0.266667    0.00029630  12 t-inv F
  0.266667  0.000000  0.066667    0.00029630  12 t-inv F
 -0.266667  0.000000 -0.066667    0.00029630  12 t-inv F
 -0.333333 -0.066667  0.000000    0.00029630  13 t-inv F
  0.000000  0.333333  0.066667    0.00029630  13 t-inv F
  0.000000 -0.333333 -0.066667    0.00029630  13 t-inv F
  0.066667  0.000000  0.333333    0.00029630  13 t-inv F
 -0.066667  0.000000 -0.333333    0.00029630  13 t-inv F
  0.066667  0.066667 -0.266667    0.00029630  13 t-inv F
 -0.066667 -0.066667  0.266667    0.00029630  13 t-inv F
  0.333333  0.266667  0.333333    0.00029630  13 t-inv F
 -0.333333 -0.266667 -0.333333    0.00029630  13 t-inv F
  0.066667  0.333333  0.000000    0.00029630  13 t-inv F
 -0.066667 -0.333333  0.000000    0.00029630  13 t-inv F
  0.266667 -0.066667 -0.066667    0.00029630  13 t-inv F
 -0.266667  0.066667  0.066667    0.00029630  13 t-inv F
  0.333333  0.333333  0.266667    0.00029630  13 t-inv F
 -0.333333 -0.333333 -0.266667    0.00029630  13 t-inv F
  0.000000  0.066667  0.333333    0.00029630  13 t-inv F
  0.000000 -0.066667 -0.333333    0.00029630  13 t-inv F
 -0.066667  0.266667 -0.066667    0.00029630  13 t-inv F
  0.066667 -0.266667  0.066667    0.00029630  13 t-inv F
  0.266667  0.333333  0.333333    0.00029630  13 t-inv F
 -0.266667 -0.333333 -0.333333    0.00029630  13 t-inv F
  0.333333  0.000000  0.066667    0.00029630  13 t-inv F
 -0.333333  0.000000 -0.066667    0.00029630  13 t-inv F
 -0.400000 -0.066667  0.000000    0.00029630  14 t-inv F
  0.000000  0.400000  0.066667    0.00029630  14 t-inv F
  0.000000 -0.400000 -0.066667    0.00029630  14 t-inv F
  0.066667  0.000000  0.400000    0.00029630  14 t-inv F
 -0.066667  0.000000 -0.400000    0.00029630  14 t-inv F
  0.066667  0.066667 -0.333333    0.00029630  14 t-inv F
 -0.066667 -0.066667  0.333333    0.00029630  14 t-inv F
  0.400000  0.333333  0.400000    0.00029630  14 t-inv F
 -0.400000 -0.333333 -0.400000    0.00029630  14 t-inv F
  0.066667  0.400000  0.000000    0.00029630  14 t-inv F
 -0.066667 -0.400000  0.000000    0.00029630  14 t-inv F
  0.333333 -0.066667 -0.066667    0.00029630  14 t-inv F
 -0.333333  0.066667  0.066667    0.00029630  14 t-inv F
  0.400000  0.400000  0.333333    0.00029630  14 t-inv F
 -0.400000 -0.400000 -0.333333    0.00029630  14 t-inv F
  0.000000  0.066667  0.400000    0.00029630  14 t-inv F
  0.000000 -0.066667 -0.400000    0.00029630  14 t-inv F
 -0.066667  0.333333 -0.066667    0.00029630  14 t-inv F
  0.066667 -0.333333  0.066667    0.00029630  14 t-inv F
  0.333333  0.400000  0.400000    0.00029630  14 t-inv F
 -0.333333 -0.400000 -0.400000    0.00029630  14 t-inv F
  0.400000  0.000000  0.066667    0.00029630  14 t-inv F
 -0.400000  0.000000 -0.066667    0.00029630  14 t-inv F
 -0.466667 -0.066667  0.000000    0.00029630  15 t-inv F
  0.000000  0.466667  0.066667    0.00029630  15 t-inv F
  0.000000 -0.466667 -0.066667    0.00029630  15 t-inv F
  0.066667  0.000000  0.466667    0.00029630  15 t-inv F
 -0.066667  0.000000 -0.466667    0.00029630  15 t-inv F
  0.066667  0.066667 -0.400000    0.00029630  15 t-inv F
 -0.066667 -0.066667  0.400000    0.00029630  15 t-inv F
  0.466667  0.400000  0.466667    0.00029630  15 t-inv F
 -0.466667 -0.400000 -0.466667    0.00029630  15 t-inv F
  0.066667  0.466667  0.000000    0.00029630  15 t-inv F
 -0.066667 -0.466667  0.000000    0.00029630  15 t-inv F
  0.400000 -0.066667 -0.066667    0.00029630  15 t-inv F
 -0.400000  0.066667  0.066667    0.00029630  15 t-inv F
  0.466667  0.466667  0.400000    0.00029630  15 t-inv F
 -0.466667 -0.466667 -0.400000    0.00029630  15 t-inv F
  0.000000  0.066667  0.466667    0.00029630  15 t-inv F
  0.000000 -0.066667 -0.466667    0.00029630  15 t-inv F
 -0.066667  0.400000 -0.066667    0.00029630  15 t-inv F
  0.066667 -0.400000  0.066667    0.00029630  15 t-inv F
  0.400000  0.466667  0.466667    0.00029630  15 t-inv F
 -0.400000 -0.466667 -0.466667    0.00029630  15 t-inv F
  0.466667  0.000000  0.066667    0.00029630  15 t-inv F
 -0.466667  0.000000 -0.066667    0.00029630  15 t-inv F
  0.466667 -0.066667  0.000000    0.00029630  16 t-inv F
  0.000000 -0.466667  0.066667    0.00029630  16 t-inv F
  0.000000  0.466667 -0.066667    0.00029630  16 t-inv F
  0.066667  0.000000 -0.466667    0.00029630  16 t-inv F
 -0.066667  0.000000  0.466667    0.00029630  16 t-inv F
  0.066667  0.066667  0.533333    0.00029630  16 t-inv F
 -0.066667 -0.066667 -0.533333    0.00029630  16 t-inv F
 -0.466667 -0.533333 -0.466667    0.00029630  16 t-inv F
  0.466667  0.533333  0.466667    0.00029630  16 t-inv F
  0.066667 -0.466667  0.000000    0.00029630  16 t-inv F
 -0.066667  0.466667  0.000000    0.00029630  16 t-inv F
 -0.533333 -0.066667 -0.066667    0.00029630  16 t-inv F
  0.533333  0.066667  0.066667    0.00029630  16 t-inv F
 -0.466667 -0.466667 -0.533333    0.00029630  16 t-inv F
  0.466667  0.466667  0.533333    0.00029630  16 t-inv F
  0.000000  0.066667 -0.466667    0.00029630  16 t-inv F
  0.000000 -0.066667  0.466667    0.00029630  16 t-inv F
 -0.066667 -0.533333 -0.066667    0.00029630  16 t-inv F
  0.066667  0.533333  0.066667    0.00029630  16 t-inv F
 -0.533333 -0.466667 -0.466667    0.00029630  16 t-inv F
  0.533333  0.466667  0.466667    0.00029630  16 t-inv F
 -0.466667  0.000000  0.066667    0.00029630  16 t-inv F
  0.466667  0.000000 -0.066667    0.00029630  16 t-inv F
  0.400000 -0.066667  0.000000    0.00029630  17 t-inv F
  0.000000 -0.400000  0.066667    0.00029630  17 t-inv F
  0.000000  0.400000 -0.066667    0.00029630  17 t-inv F
  0.066667  0.000000 -0.400000    0.00029630  17 t-inv F
 -0.066667  0.000000  0.400000    0.00029630  17 t-inv F
  0.066667  0.066667  0.466667    0.00029630  17 t-inv F
 -0.066667 -0.066667 -0.466667    0.00029630  17 t-inv F
 -0.400000 -0.466667 -0.400000    0.00029630  17 t-inv F
  0.400000  0.466667  0.400000    0.00029630  17 t-inv F
  0.066667 -0.400000  0.000000    0.00029630  17 t-inv F
 -0.066667  0.400000  0.000000    0.00029630  17 t-inv F
 -0.466667 -0.066667 -0.066667    0.00029630  17 t-inv F
  0.466667  0.066667  0.066667    0.00029630  17 t-inv F
 -0.400000 -0.400000 -0.466667    0.00029630  17 t-inv F
  0.400000  0.400000  0.466667    0.00029630  17 t-inv F
  0.000000  0.066667 -0.400000    0.00029630  17 t-inv F
  0.000000 -0.066667  0.400000    0.00029630  17 t-inv F
 -0.066667 -0.466667 -0.066667    0.00029630  17 t-inv F
  0.066667  0.466667  0.066667    0.00029630  17 t-inv F
 -0.466667 -0.400000 -0.400000    0.00029630  17 t-inv F
  0.466667  0.400000  0.400000    0.00029630  17 t-inv F
 -0.400000  0.000000  0.066667    0.00029630  17 t-inv F
  0.400000  0.000000 -0.066667    0.00029630  17 t-inv F
  0.333333 -0.066667  0.000000    0.00029630  18 t-inv F
  0.000000 -0.333333  0.066667    0.00029630  18 t-inv F
  0.000000  0.333333 -0.066667    0.00029630  18 t-inv F
  0.066667  0.000000 -0.333333    0.00029630  18 t-inv F
 -0.066667  0.000000  0.333333    0.00029630  18 t-inv F
  0.066667  0.066667  0.400000    0.00029630  18 t-inv F
 -0.066667 -0.066667 -0.400000    0.00029630  18 t-inv F
 -0.333333 -0.400000 -0.333333    0.00029630  18 t-inv F
  0.333333  0.400000  0.333333    0.00029630  18 t-inv F
  0.066667 -0.333333  0.000000    0.00029630  18 t-inv F
 -0.066667  0.333333  0.000000    0.00029630  18 t-inv F
 -0.400000 -0.066667 -0.066667    0.00029630  18 t-inv F
  0.400000  0.066667  0.066667    0.00029630  18 t-inv F
 -0.333333 -0.333333 -0.400000    0.00029630  18 t-inv F
  0.333333  0.333333  0.400000    0.00029630  18 t-inv F
  0.000000  0.066667 -0.333333    0.00029630  18 t-inv F
  0.000000 -0.066667  0.333333    0.00029630  18 t-inv F
 -0.066667 -0.400000 -0.066667    0.00029630  18 t-inv F
  0.066667  0.400000  0.066667    0.00029630  18 t-inv F
 -0.400000 -0.333333 -0.333333    0.00029630  18 t-inv F
  0.400000  0.333333  0.333333    0.00029630  18 t-inv F
 -0.333333  0.000000  0.066667    0.00029630  18 t-inv F
  0.333333  0.000000 -0.066667    0.00029630  18 t-inv F
  0.266667 -0.066667  0.000000    0.00029630  19 t-inv F
  0.000000 -0.266667  0.066667    0.00029630  19 t-inv F
  0.000000  0.266667 -0.066667    0.00029630  19 t-inv F
  0.066667  0.000000 -0.266667    0.00029630  19 t-inv F
 -0.066667  0.000000  0.266667    0.00029630  19 t-inv F
  0.066667  0.066667  0.333333    0.00029630  19 t-inv F
 -0.066667 -0.066667 -0.333333    0.00029630  19 t-inv F
 -0.266667 -0.333333 -0.266667    0.00029630  19 t-inv F
  0.266667  0.333333  0.266667    0.00029630  19 t-inv F
  0.066667 -0.266667  0.000000    0.00029630  19 t-inv F
 -0.066667  0.266667  0.000000    0.00029630  19 t-inv F
 -0.333333 -0.066667 -0.066667    0.00029630  19 t-inv F
  0.333333  0.066667  0.066667    0.00029630  19 t-inv F
 -0.266667 -0.266667 -0.333333    0.00029630  19 t-inv F
  0.266667  0.266667  0.333333    0.00029630  19 t-inv F
  0.000000  0.066667 -0.266667    0.00029630  19 t-inv F
  0.000000 -0.066667  0.266667    0.00029630  19 t-inv F
 -0.066667 -0.333333 -0.066667    0.00029630  19 t-inv F
  0.066667  0.333333  0.066667    0.00029630  19 t-inv F
 -0.333333 -0.266667 -0.266667    0.00029630  19 t-inv F
  0.333333  0.266667  0.266667    0.00029630  19 t-inv F
 -0.266667  0.000000  0.066667    0.00029630  19 t-inv F
  0.266667  0.000000 -0.066667    0.00029630  19 t-inv F
  0.200000 -0.066667  0.000000    0.00029630  20 t-inv F
  0.000000 -0.200000  0.066667    0.00029630  20 t-inv F
  0.000000  0.200000 -0.066667    0.00029630  20 t-inv F
  0.066667  0.000000 -0.200000    0.00029630  20 t-inv F
 -0.066667  0.000000  0.200000    0.00029630  20 t-inv F
  0.066667  0.066667  0.266667    0.00029630  20 t-inv F
 -0.066667 -0.066667 -0.266667    0.00029630  20 t-inv F
 -0.200000 -0.266667 -0.200000    0.00029630  20 t-inv F
  0.200000  0.266667  0.200000    0.00029630  20 t-inv F
  0.066667 -0.200000  0.000000    0.00029630  20 t-inv F
 -0.066667  0.200000  0.000000    0.00029630  20 t-inv F
 -0.266667 -0.066667 -0.066667    0.00029630  20 t-inv F
  0.266667  0.066667  0.066667    0.00029630  20 t-inv F
 -0.200000 -0.200000 -0.266667    0.00029630  20 t-inv F
  0.200000  0.200000  0.266667    0.00029630  20 t-inv F
  0.000000  0.066667 -0.200000    0.00029630  20 t-inv F
  0.000000 -0.066667  0.200000    0.00029630  20 t-inv F
 -0.066667 -0.266667 -0.066667    0.00029630  20 t-inv F
  0.066667  0.266667  0.066667    0.00029630  20 t-inv F
 -0.266667 -0.200000 -0.200000    0.00029630  20 t-inv F
  0.266667  0.200000  0.200000    0.00029630  20 t-inv F
 -0.200000  0.000000  0.066667    0.00029630  20 t-inv F
  0.200000  0.000000 -0.066667    0.00029630  20 t-inv F
  0.133333 -0.066667  0.000000    0.00029630  21 t-inv F
  0.000000 -0.133333  0.066667    0.00029630  21 t-inv F
  0.000000  0.133333 -0.066667    0.00029630  21 t-inv F
  0.066667  0.000000 -0.133333    0.00029630  21 t-inv F
 -0.066667  0.000000  0.133333    0.00029630  21 t-inv F
  0.066667  0.066667  0.200000    0.00029630  21 t-inv F
 -0.066667 -0.066667 -0.200000    0.00029630  21 t-inv F
 -0.133333 -0.200000 -0.133333    0.00029630  21 t-inv F
  0.133333  0.200000  0.133333    0.00029630  21 t-inv F
  0.066667 -0.133333  0.000000    0.00029630  21 t-inv F
 -0.066667  0.133333  0.000000    0.00029630  21 t-inv F
 -0.200000 -0.066667 -0.066667    0.00029630  21 t-inv F
  0.200000  0.066667  0.066667    0.00029630  21 t-inv F
 -0.133333 -0.133333 -0.200000    0.00029630  21 t-inv F
  0.133333  0.133333  0.200000    0.00029630  21 t-inv F
  0.000000  0.066667 -0.133333    0.00029630  21 t-inv F
  0.000000 -0.066667  0.133333    0.00029630  21 t-inv F
 -0.066667 -0.200000 -0.066667    0.00029630  21 t-inv F
  0.066667  0.200000  0.066667    0.00029630  21 t-inv F
 -0.200000 -0.133333 -0.133333    0.00029630  21 t-inv F
  0.200000  0.133333  0.133333    0.00029630  21 t-inv F
 -0.133333  0.000000  0.066667    0.00029630  21 t-inv F
  0.133333  0.000000 -0.066667    0.00029630  21 t-inv F
  0.066667 -0.066667  0.000000    0.00029630  22 t-inv F
  0.000000 -0.066667  0.066667    0.00029630  22 t-inv F
  0.000000  0.066667 -0.066667    0.00029630  22 t-inv F
  0.066667  0.000000 -0.066667    0.00029630  22 t-inv F
 -0.066667  0.000000  0.066667    0.00029630  22 t-inv F
  0.066667  0.066667  0.133333    0.00029630  22 t-inv F
 -0.066667 -0.066667 -0.133333    0.00029630  22 t-inv F
 -0.066667 -0.133333 -0.066667    0.00029630  22 t-inv F
  0.066667  0.133333  0.066667    0.00029630  22 t-inv F
 -0.133333 -0.066667 -0.066667    0.00029630  22 t-inv F
  0.133333  0.066667  0.066667    0.00029630  22 t-inv F
 -0.133333 -0.133333  0.000000    0.00029630  23 t-inv F
  0.000000  0.133333  0.133333    0.00029630  23 t-inv F
  0.000000 -0.133333 -0.133333    0.00029630  23 t-inv F
  0.133333  0.000000  0.133333    0.00029630  23 t-inv F
 -0.133333  0.000000 -0.133333    0.00029630  23 t-inv F
 -0.200000 -0.133333  0.000000    0.00029630  24 t-inv F
  0.000000  0.200000  0.133333    0.00029630  24 t-inv F
  0.000000 -0.200000 -0.133333    0.00029630  24 t-inv F
  0.133333  0.000000  0.200000    0.00029630  24 t-inv F
 -0.133333  0.000000 -0.200000    0.00029630  24 t-inv F
  0.133333  0.133333 -0.066667    0.00029630  24 t-inv F
 -0.133333 -0.133333  0.066667    0.00029630  24 t-inv F
  0.200000  0.066667  0.200000    0.00029630  24 t-inv F
 -0.200000 -0.066667 -0.200000    0.00029630  24 t-inv F
  0.133333  0.200000  0.000000    0.00029630  24 t-inv F
 -0.133333 -0.200000  0.000000    0.00029630  24 t-inv F
  0.066667 -0.133333 -0.133333    0.00029630  24 t-inv F
 -0.066667  0.133333  0.133333    0.00029630  24 t-inv F
  0.200000  0.200000  0.066667    0.00029630  24 t-inv F
 -0.200000 -0.200000 -0.066667    0.00029630  24 t-inv F
  0.000000  0.133333  0.200000    0.00029630  24 t-inv F
  0.000000 -0.133333 -0.200000    0.00029630  24 t-inv F
 -0.133333  0.066667 -0.133333    0.00029630  24 t-inv F
  0.133333 -0.066667  0.133333    0.00029630  24 t-inv F
  0.066667  0.200000  0.200000    0.00029630  24 t-inv F
 -0.066667 -0.200000 -0.200000    0.00029630  24 t-inv F
  0.200000  0.000000  0.133333    0.00029630  24 t-inv F
 -0.200000  0.000000 -0.133333    0.00029630  24 t-inv F
 -0.266667 -0.133333  0.000000    0.00029630  25 t-inv F
  0.000000  0.266667  0.133333    0.00029630  25 t-inv F
  0.000000 -0.266667 -0.133333    0.00029630  25 t-inv F
  0.133333  0.000000  0.266667    0.00029630  25 t-inv F
 -0.133333  0.000000 -0.266667    0.00029630  25 t-inv F
  0.133333  0.133333 -0.133333    0.00029630  25 t-inv F
 -0.133333 -0.133333  0.133333    0.00029630  25 t-inv F
  0.266667  0.133333  0.266667    0.00029630  25 t-inv F
 -0.266667 -0.133333 -0.266667    0.00029630  25 t-inv F
  0.133333  0.266667  0.000000    0.00029630  25 t-inv F
 -0.133333 -0.266667  0.000000    0.00029630  25 t-inv F
  0.133333 -0.133333 -0.133333    0.00029630  25 t-inv F
 -0.133333  0.133333  0.133333    0.00029630  25 t-inv F
  0.266667  0.266667  0.133333    0.00029630  25 t-inv F
 -0.266667 -0.266667 -0.133333    0.00029630  25 t-inv F
  0.000000  0.133333  0.266667    0.00029630  25 t-inv F
  0.000000 -0.133333 -0.266667    0.00029630  25 t-inv F
 -0.133333  0.133333 -0.133333    0.00029630  25 t-inv F
  0.133333 -0.133333  0.133333    0.00029630  25 t-inv F
  0.133333  0.266667  0.266667    0.00029630  25 t-inv F
 -0.133333 -0.266667 -0.266667    0.00029630  25 t-inv F
  0.266667  0.000000  0.133333    0.00029630  25 t-inv F
 -0.266667  0.000000 -0.133333    0.00029630  25 t-inv F
 -0.333333 -0.133333  0.000000    0.00029630  26 t-inv F
  0.000000  0.333333  0.133333    0.00029630  26 t-inv F
  0.000000 -0.333333 -0.133333    0.00029630  26 t-inv F
  0.133333  0.000000  0.333333    0.00029630  26 t-inv F
 -0.133333  0.000000 -0.333333    0.00029630  26 t-inv F
  0.133333  0.133333 -0.200000    0.00029630  26 t-inv F
 -0.133333 -0.133333  0.200000    0.00029630  26 t-inv F
  0.333333  0.200000  0.333333    0.00029630  26 t-inv F
 -0.333333 -0.200000 -0.333333    0.00029630  26 t-inv F
  0.133333  0.333333  0.000000    0.00029630  26 t-inv F
 -0.133333 -0.333333  0.000000    0.00029630  26 t-inv F
  0.200000 -0.133333 -0.133333    0.00029630  26 t-inv F
 -0.200000  0.133333  0.133333    0.00029630  26 t-inv F
  0.333333  0.333333  0.200000    0.00029630  26 t-inv F
 -0.333333 -0.333333 -0.200000    0.00029630  26 t-inv F
  0.000000  0.133333  0.333333    0.00029630  26 t-inv F
  0.000000 -0.133333 -0.333333    0.00029630  26 t-inv F
 -0.133333  0.200000 -0.133333    0.00029630  26 t-inv F
  0.133333 -0.200000  0.133333    0.00029630  26 t-inv F
  0.200000  0.333333  0.333333    0.00029630  26 t-inv F
 -0.200000 -0.333333 -0.333333    0.00029630  26 t-inv F
  0.333333  0.000000  0.133333    0.00029630  26 t-inv F
 -0.333333  0.000000 -0.133333    0.00029630  26 t-inv F
 -0.400000 -0.133333  0.000000    0.00029630  27 t-inv F
  0.000000  0.400000  0.133333    0.00029630  27 t-inv F
  0.000000 -0.400000 -0.133333    0.00029630  27 t-inv F
  0.133333  0.000000  0.400000    0.00029630  27 t-inv F
 -0.133333  0.000000 -0.400000    0.00029630  27 t-inv F
  0.133333  0.133333 -0.266667    0.00029630  27 t-inv F
 -0.133333 -0.133333  0.266667    0.00029630  27 t-inv F
  0.400000  0.266667  0.400000    0.00029630  27 t-inv F
 -0.400000 -0.266667 -0.400000    0.00029630  27 t-inv F
  0.133333  0.400000  0.000000    0.00029630  27 t-inv F
 -0.133333 -0.400000  0.000000    0.00029630  27 t-inv F
  0.266667 -0.133333 -0.133333    0.00029630  27 t-inv F
 -0.266667  0.133333  0.133333    0.00029630  27 t-inv F
  0.400000  0.400000  0.266667    0.00029630  27 t-inv F
 -0.400000 -0.400000 -0.266667    0.00029630  27 t-inv F
  0.000000  0.133333  0.400000    0.00029630  27 t-inv F
  0.000000 -0.133333 -0.400000    0.00029630  27 t-inv F
 -0.133333  0.266667 -0.133333    0.00029630  27 t-inv F
  0.133333 -0.266667  0.133333    0.00029630  27 t-inv F
  0.266667  0.400000  0.400000    0.00029630  27 t-inv F
 -0.266667 -0.400000 -0.400000    0.00029630  27 t-inv F
  0.400000  0.000000  0.133333    0.00029630  27 t-inv F
 -0.400000  0.000000 -0.133333    0.00029630  27 t-inv F
 -0.466667 -0.133333  0.000000    0.00029630  28 t-inv F
  0.000000  0.466667  0.133333    0.00029630  28 t-inv F
  0.000000 -0.466667 -0.133333    0.00029630  28 t-inv F
  0.133333  0.000000  0.466667    0.00029630  28 t-inv F
 -0.133333  0.000000 -0.466667    0.00029630  28 t-inv F
  0.133333  0.133333 -0.333333    0.00029630  28 t-inv F
 -0.133333 -0.133333  0.333333    0.00029630  28 t-inv F
  0.466667  0.333333  0.466667    0.00029630  28 t-inv F
 -0.466667 -0.333333 -0.466667    0.00029630  28 t-inv F
  0.133333  0.466667  0.000000    0.00029630  28 t-inv F
 -0.133333 -0.466667  0.000000    0.00029630  28 t-inv F
  0.333333 -0.133333 -0.133333    0.00029630  28 t-inv F
 -0.333333  0.133333  0.133333    0.00029630  28 t-inv F
  0.466667  0.466667  0.333333    0.00029630  28 t-inv F
 -0.466667 -0.466667 -0.333333    0.00029630  28 t-inv F
  0.000000  0.133333  0.466667    0.00029630  28 t-inv F
  0.000000 -0.133333 -0.466667    0.00029630  28 t-inv F
 -0.133333  0.333333 -0.133333    0.00029630  28 t-inv F
  0.133333 -0.333333  0.133333    0.00029630  28 t-inv F
  0.333333  0.466667  0.466667    0.00029630  28 t-inv F
 -0.333333 -0.466667 -0.466667    0.00029630  28 t-inv F
  0.466667  0.000000  0.133333    0.00029630  28 t-inv F
 -0.466667  0.000000 -0.133333    0.00029630  28 t-inv F
  0.466667 -0.133333  0.000000    0.00029630  29 t-inv F
  0.000000 -0.466667  0.133333    0.00029630  29 t-inv F
  0.000000  0.466667 -0.133333    0.00029630  29 t-inv F
  0.133333  0.000000 -0.466667    0.00029630  29 t-inv F
 -0.133333  0.000000  0.466667    0.00029630  29 t-inv F
  0.133333  0.133333  0.600000    0.00029630  29 t-inv F
 -0.133333 -0.133333 -0.600000    0.00029630  29 t-inv F
 -0.466667 -0.600000 -0.466667    0.00029630  29 t-inv F
  0.466667  0.600000  0.466667    0.00029630  29 t-inv F
  0.133333 -0.466667  0.000000    0.00029630  29 t-inv F
 -0.133333  0.466667  0.000000    0.00029630  29 t-inv F
 -0.600000 -0.133333 -0.133333    0.00029630  29 t-inv F
  0.600000  0.133333  0.133333    0.00029630  29 t-inv F
 -0.466667 -0.466667 -0.600000    0.00029630  29 t-inv F
  0.466667  0.466667  0.600000    0.00029630  29 t-inv F
  0.000000  0.133333 -0.466667    0.00029630  29 t-inv F
  0.000000 -0.133333  0.466667    0.00029630  29 t-inv F
 -0.133333 -0.600000 -0.133333    0.00029630  29 t-inv F
  0.133333  0.600000  0.133333    0.00029630  29 t-inv F
 -0.600000 -0.466667 -0.466667    0.00029630  29 t-inv F
  0.600000  0.466667  0.466667    0.00029630  29 t-inv F
 -0.466667  0.000000  0.133333    0.00029630  29 t-inv F
  0.466667  0.000000 -0.133333    0.00029630  29 t-inv F
  0.400000 -0.133333  0.000000    0.00029630  30 t-inv F
  0.000000 -0.400000  0.133333    0.00029630  30 t-inv F
  0.000000  0.400000 -0.133333    0.00029630  30 t-inv F
  0.133333  0.000000 -0.400000    0.00029630  30 t-inv F
 -0.133333  0.000000  0.400000    0.00029630  30 t-inv F
  0.133333  0.133333  0.533333    0.00029630  30 t-inv F
 -0.133333 -0.133333 -0.533333    0.00029630  30 t-inv F
 -0.400000 -0.533333 -0.400000    0.00029630  30 t-inv F
  0.400000  0.533333  0.400000    0.00029630  30 t-inv F
  0.133333 -0.400000  0.000000    0.00029630  30 t-inv F
 -0.133333  0.400000  0.000000    0.00029630  30 t-inv F
 -0.533333 -0.133333 -0.133333    0.00029630  30 t-inv F
  0.533333  0.133333  0.133333    0.00029630  30 t-inv F
 -0.400000 -0.400000 -0.533333    0.00029630  30 t-inv F
  0.400000  0.400000  0.533333    0.00029630  30 t-inv F
  0.000000  0.133333 -0.400000    0.00029630  30 t-inv F
  0.000000 -0.133333  0.400000    0.00029630  30 t-inv F
 -0.133333 -0.533333 -0.133333    0.00029630  30 t-inv F
  0.133333  0.533333  0.133333    0.00029630  30 t-inv F
 -0.533333 -0.400000 -0.400000    0.00029630  30 t-inv F
  0.533333  0.400000  0.400000    0.00029630  30 t-inv F
 -0.400000  0.000000  0.133333    0.00029630  30 t-inv F
  0.400000  0.000000 -0.133333    0.00029630  30 t-inv F
  0.333333 -0.133333  0.000000    0.00029630  31 t-inv F
  0.000000 -0.333333  0.133333    0.00029630  31 t-inv F
  0.000000  0.333333 -0.133333    0.00029630  31 t-inv F
  0.133333  0.000000 -0.333333    0.00029630  31 t-inv F
 -0.133333  0.000000  0.333333    0.00029630  31 t-inv F
  0.133333  0.133333  0.466667    0.00029630  31 t-inv F
 -0.133333 -0.133333 -0.466667    0.00029630  31 t-inv F
 -0.333333 -0.466667 -0.333333    0.00029630  31 t-inv F
  0.333333  0.466667  0.333333    0.00029630  31 t-inv F
  0.133333 -0.333333  0.000000    0.00029630  31 t-inv F
 -0.133333  0.333333  0.000000    0.00029630  31 t-inv F
 -0.466667 -0.133333 -0.133333    0.00029630  31 t-inv F
  0.466667  0.133333  0.133333    0.00029630  31 t-inv F
 -0.333333 -0.333333 -0.466667    0.00029630  31 t-inv F
  0.333333  0.333333  0.466667    0.00029630  31 t-inv F
  0.000000  0.133333 -0.333333    0.00029630  31 t-inv F
  0.000000 -0.133333  0.333333    0.00029630  31 t-inv F
 -0.133333 -0.466667 -0.133333    0.00029630  31 t-inv F
  0.133333  0.466667  0.133333    0.00029630  31 t-inv F
 -0.466667 -0.333333 -0.333333    0.00029630  31 t-inv F
  0.466667  0.333333  0.333333    0.00029630  31 t-inv F
 -0.333333  0.000000  0.133333    0.00029630  31 t-inv F
  0.333333  0.000000 -0.133333    0.00029630  31 t-inv F
  0.266667 -0.133333  0.000000    0.00029630  32 t-inv F
  0.000000 -0.266667  0.133333    0.00029630  32 t-inv F
  0.000000  0.266667 -0.133333    0.00029630  32 t-inv F
  0.133333  0.000000 -0.266667    0.00029630  32 t-inv F
 -0.133333  0.000000  0.266667    0.00029630  32 t-inv F
  0.133333  0.133333  0.400000    0.00029630  32 t-inv F
 -0.133333 -0.133333 -0.400000    0.00029630  32 t-inv F
 -0.266667 -0.400000 -0.266667    0.00029630  32 t-inv F
  0.266667  0.400000  0.266667    0.00029630  32 t-inv F
  0.133333 -0.266667  0.000000    0.00029630  32 t-inv F
 -0.133333  0.266667  0.000000    0.00029630  32 t-inv F
 -0.400000 -0.133333 -0.133333    0.00029630  32 t-inv F
  0.400000  0.133333  0.133333    0.00029630  32 t-inv F
 -0.266667 -0.266667 -0.400000    0.00029630  32 t-inv F
  0.266667  0.266667  0.400000    0.00029630  32 t-inv F
  0.000000  0.133333 -0.266667    0.00029630  32 t-inv F
  0.000000 -0.133333  0.266667    0.00029630  32 t-inv F
 -0.133333 -0.400000 -0.133333    0.00029630  32 t-inv F
  0.133333  0.400000  0.133333    0.00029630  32 t-inv F
 -0.400000 -0.266667 -0.266667    0.00029630  32 t-inv F
  0.400000  0.266667  0.266667    0.00029630  32 t-inv F
 -0.266667  0.000000  0.133333    0.00029630  32 t-inv F
  0.266667  0.000000 -0.133333    0.00029630  32 t-inv F
  0.200000 -0.133333  0.000000    0.00029630  33 t-inv F
  0.000000 -0.200000  0.133333    0.00029630  33 t-inv F
  0.000000  0.200000 -0.133333    0.00029630  33 t-inv F
  0.133333  0.000000 -0.200000    0.00029630  33 t-inv F
 -0.133333  0.000000  0.200000    0.00029630  33 t-inv F
  0.133333  0.133333  0.333333    0.00029630  33 t-inv F
 -0.133333 -0.133333 -0.333333    0.00029630  33 t-inv F
 -0.200000 -0.333333 -0.200000    0.00029630  33 t-inv F
  0.200000  0.333333  0.200000    0.00029630  33 t-inv F
  0.133333 -0.200000  0.000000    0.00029630  33 t-inv F
 -0.133333  0.200000  0.000000    0.00029630  33 t-inv F
 -0.333333 -0.133333 -0.133333    0.00029630  33 t-inv F
  0.333333  0.133333  0.133333    0.00029630  33 t-inv F
 -0.200000 -0.200000 -0.333333    0.00029630  33 t-inv F
  0.200000  0.200000  0.333333    0.00029630  33 t-inv F
  0.000000  0.133333 -0.200000    0.00029630  33 t-inv F
  0.000000 -0.133333  0.200000    0.00029630  33 t-inv F
 -0.133333 -0.333333 -0.133333    0.00029630  33 t-inv F
  0.133333  0.333333  0.133333    0.00029630  33 t-inv F
 -0.333333 -0.200000 -0.200000    0.00029630  33 t-inv F
  0.333333  0.200000  0.200000    0.00029630  33 t-inv F
 -0.200000  0.000000  0.133333    0.00029630  33 t-inv F
  0.200000  0.000000 -0.133333    0.00029630  33 t-inv F
  0.133333 -0.133333  0.000000    0.00029630  34 t-inv F
  0.000000 -0.133333  0.133333    0.00029630  34 t-inv F
  0.000000  0.133333 -0.133333    0.00029630  34 t-inv F
  0.133333  0.000000 -0.133333    0.00029630  34 t-inv F
 -0.133333  0.000000  0.133333    0.00029630  34 t-inv F
  0.133333  0.133333  0.266667    0.00029630  34 t-inv F
 -0.133333 -0.133333 -0.266667    0.00029630  34 t-inv F
 -0.133333 -0.266667 -0.133333    0.00029630  34 t-inv F
  0.133333  0.266667  0.133333    0.00029630  34 t-inv F
 -0.266667 -0.133333 -0.133333    0.00029630  34 t-inv F
  0.266667  0.133333  0.133333    0.00029630  34 t-inv F
 -0.200000 -0.200000  0.000000    0.00029630  35 t-inv F
  0.000000  0.200000  0.200000    0.00029630  35 t-inv F
  0.000000 -0.200000 -0.200000    0.00029630  35 t-inv F
  0.200000  0.000000  0.200000    0.00029630  35 t-inv F
 -0.200000  0.000000 -0.200000    0.00029630  35 t-inv F
 -0.266667 -0.200000  0.000000    0.00029630  36 t-inv F
  0.000000  0.266667  0.200000    0.00029630  36 t-inv F
  0.000000 -0.266667 -0.200000    0.00029630  36 t-inv F
  0.200000  0.000000  0.266667    0.00029630  36 t-inv F
 -0.200000  0.000000 -0.266667    0.00029630  36 t-inv F
  0.200000  0.200000 -0.066667    0.00029630  36 t-inv F
 -0.200000 -0.200000  0.066667    0.00029630  36 t-inv F
  0.266667  0.066667  0.266667    0.00029630  36 t-inv F
 -0.266667 -0.066667 -0.266667    0.00029630  36 t-inv F
  0.200000  0.266667  0.000000    0.00029630  36 t-inv F
 -0.200000 -0.266667  0.000000    0.00029630  36 t-inv F
  0.066667 -0.200000 -0.200000    0.00029630  36 t-inv F
 -0.066667  0.200000  0.200000    0.00029630  36 t-inv F
  0.266667  0.266667  0.066667    0.00029630  36 t-inv F
 -0.266667 -0.266667 -0.066667    0.00029630  36 t-inv F
  0.000000  0.200000  0.266667    0.00029630  36 t-inv F
  0.000000 -0.200000 -0.266667    0.00029630  36 t-inv F
 -0.200000  0.066667 -0.200000    0.00029630  36 t-inv F
  0.200000 -0.066667  0.200000    0.00029630  36 t-inv F
  0.066667  0.266667  0.266667    0.00029630  36 t-inv F
 -0.066667 -0.266667 -0.266667    0.00029630  36 t-inv F
  0.266667  0.000000  0.200000    0.00029630  36 t-inv F
 -0.266667  0.000000 -0.200000    0.00029630  36 t-inv F
 -0.333333 -0.200000  0.000000    0.00029630  37 t-inv F
  0.000000  0.333333  0.200000    0.00029630  37 t-inv F
  0.000000 -0.333333 -0.200000    0.00029630  37 t-inv F
  0.200000  0.000000  0.333333    0.00029630  37 t-inv F
 -0.200000  0.000000 -0.333333    0.00029630  37 t-inv F
  0.200000  0.200000 -0.133333    0.00029630  37 t-inv F
 -0.200000 -0.200000  0.133333    0.00029630  37 t-inv F
  0.333333  0.133333  0.333333    0.00029630  37 t-inv F
 -0.333333 -0.133333 -0.333333    0.00029630  37 t-inv F
  0.200000  0.333333  0.000000    0.00029630  37 t-inv F
 -0.200000 -0.333333  0.000000    0.00029630  37 t-inv F
  0.133333 -0.200000 -0.200000    0.00029630  37 t-inv F
 -0.133333  0.200000  0.200000    0.00029630  37 t-inv F
  0.333333  0.333333  0.133333    0.00029630  37 t-inv F
 -0.333333 -0.333333 -0.133333    0.00029630  37 t-inv F
  0.000000  0.200000  0.333333    0.00029630  37 t-inv F
  0.000000 -0.200000 -0.333333    0.00029630  37 t-inv F
 -0.200000  0.133333 -0.200000    0.00029630  37 t-inv F
  0.200000 -0.133333  0.200000    0.00029630  37 t-inv F
  0.133333  0.333333  0.333333    0.00029630  37 t-inv F
 -0.133333 -0.333333 -0.333333    0.00029630  37 t-inv F
  0.333333  0.000000  0.200000    0.00029630  37 t-inv F
 -0.333333  0.000000 -0.200000    0.00029630  37 t-inv F
 -0.400000 -0.200000  0.000000    0.00029630  38 t-inv F
  0.000000  0.400000  0.200000    0.00029630  38 t-inv F
  0.000000 -0.400000 -0.200000    0.00029630  38 t-inv F
  0.200000  0.000000  0.400000    0.00029630  38 t-inv F
 -0.200000  0.000000 -0.400000    0.00029630  38 t-inv F
  0.200000  0.200000 -0.200000    0.00029630  38 t-inv F
 -0.200000 -0.200000  0.200000    0.00029630  38 t-inv F
  0.400000  0.200000  0.400000    0.00029630  38 t-inv F
 -0.400000 -0.200000 -0.400000    0.00029630  38 t-inv F
  0.200000  0.400000  0.000000    0.00029630  38 t-inv F
 -0.200000 -0.400000  0.000000    0.00029630  38 t-inv F
  0.200000 -0.200000 -0.200000    0.00029630  38 t-inv F
 -0.200000  0.200000  0.200000    0.00029630  38 t-inv F
  0.400000  0.400000  0.200000    0.00029630  38 t-inv F
 -0.400000 -0.400000 -0.200000    0.00029630  38 t-inv F
  0.000000  0.200000  0.400000    0.00029630  38 t-inv F
  0.000000 -0.200000 -0.400000    0.00029630  38 t-inv F
 -0.200000  0.200000 -0.200000    0.00029630  38 t-inv F
  0.200000 -0.200000  0.200000    0.00029630  38 t-inv F
  0.200000  0.400000  0.400000    0.00029630  38 t-inv F
 -0.200000 -0.400000 -0.400000    0.00029630  38 t-inv F
  0.400000  0.000000  0.200000    0.00029630  38 t-inv F
 -0.400000  0.000000 -0.200000    0.00029630  38 t-inv F
 -0.466667 -0.200000  0.000000    0.00029630  39 t-inv F
  0.000000  0.466667  0.200000    0.00029630  39 t-inv F
  0.000000 -0.466667 -0.200000    0.00029630  39 t-inv F
  0.200000  0.000000  0.466667    0.00029630  39 t-inv F
 -0.200000  0.000000 -0.466667    0.00029630  39 t-inv F
  0.200000  0.200000 -0.266667    0.00029630  39 t-inv F
 -0.200000 -0.200000  0.266667    0.00029630  39 t-inv F
  0.466667  0.266667  0.466667    0.00029630  39 t-inv F
 -0.466667 -0.266667 -0.466667    0.00029630  39 t-inv F
  0.200000  0.466667  0.000000    0.00029630  39 t-inv F
 -0.200000 -0.466667  0.000000    0.00029630  39 t-inv F
  0.266667 -0.200000 -0.200000    0.00029630  39 t-inv F
 -0.266667  0.200000  0.200000    0.00029630  39 t-inv F
  0.466667  0.466667  0.266667    0.00029630  39 t-inv F
 -0.466667 -0.466667 -0.266667    0.00029630  39 t-inv F
  0.000000  0.200000  0.466667    0.00029630  39 t-inv F
  0.000000 -0.200000 -0.466667    0.00029630  39 t-inv F
 -0.200000  0.266667 -0.200000    0.00029630  39 t-inv F
  0.200000 -0.266667  0.200000    0.00029630  39 t-inv F
  0.266667  0.466667  0.466667    0.00029630  39 t-inv F
 -0.266667 -0.466667 -0.466667    0.00029630  39 t-inv F
  0.466667  0.000000  0.200000    0.00029630  39 t-inv F
 -0.466667  0.000000 -0.200000    0.00029630  39 t-inv F
  0.466667 -0.200000  0.000000    0.00029630  40 t-inv F
  0.000000 -0.466667  0.200000    0.00029630  40 t-inv F
  0.000000  0.466667 -0.200000    0.00029630  40 t-inv F
  0.200000  0.000000 -0.466667    0.00029630  40 t-inv F
 -0.200000  0.000000  0.466667    0.00029630  40 t-inv F
  0.200000  0.200000  0.666667    0.00029630  40 t-inv F
 -0.200000 -0.200000 -0.666667    0.00029630  40 t-inv F
 -0.466667 -0.666667 -0.466667    0.00029630  40 t-inv F
  0.466667  0.666667  0.466667    0.00029630  40 t-inv F
  0.200000 -0.466667  0.000000    0.00029630  40 t-inv F
 -0.200000  0.466667  0.000000    0.00029630  40 t-inv F
 -0.666667 -0.200000 -0.200000    0.00029630  40 t-inv F
  0.666667  0.200000  0.200000    0.00029630  40 t-inv F
 -0.466667 -0.466667 -0.666667    0.00029630  40 t-inv F
  0.466667  0.466667  0.666667    0.00029630  40 t-inv F
  0.000000  0.200000 -0.466667    0.00029630  40 t-inv F
  0.000000 -0.200000  0.466667    0.00029630  40 t-inv F
 -0.200000 -0.666667 -0.200000    0.00029630  40 t-inv F
  0.200000  0.666667  0.200000    0.00029630  40 t-inv F
 -0.666667 -0.466667 -0.466667    0.00029630  40 t-inv F
  0.666667  0.466667  0.466667    0.00029630  40 t-inv F
 -0.466667  0.000000  0.200000    0.00029630  40 t-inv F
  0.466667  0.000000 -0.200000    0.00029630  40 t-inv F
  0.400000 -0.200000  0.000000    0.00029630  41 t-inv F
  0.000000 -0.400000  0.200000    0.00029630  41 t-inv F
  0.000000  0.400000 -0.200000    0.00029630  41 t-inv F
  0.200000  0.000000 -0.400000    0.00029630  41 t-inv F
 -0.200000  0.000000  0.400000    0.00029630  41 t-inv F
  0.200000  0.200000  0.600000    0.00029630  41 t-inv F
 -0.200000 -0.200000 -0.600000    0.00029630  41 t-inv F
 -0.400000 -0.600000 -0.400000    0.00029630  41 t-inv F
  0.400000  0.600000  0.400000    0.00029630  41 t-inv F
  0.200000 -0.400000  0.000000    0.00029630  41 t-inv F
 -0.200000  0.400000  0.000000    0.00029630  41 t-inv F
 -0.600000 -0.200000 -0.200000    0.00029630  41 t-inv F
  0.600000  0.200000  0.200000    0.00029630  41 t-inv F
 -0.400000 -0.400000 -0.600000    0.00029630  41 t-inv F
  0.400000  0.400000  0.600000    0.00029630  41 t-inv F
  0.000000  0.200000 -0.400000    0.00029630  41 t-inv F
  0.000000 -0.200000  0.400000    0.00029630  41 t-inv F
 -0.200000 -0.600000 -0.200000    0.00029630  41 t-inv F
  0.200000  0.600000  0.200000    0.00029630  41 t-inv F
 -0.600000 -0.400000 -0.400000    0.00029630  41 t-inv F
  0.600000  0.400000  0.400000    0.00029630  41 t-inv F
 -0.400000  0.000000  0.200000    0.00029630  41 t-inv F
  0.400000  0.000000 -0.200000    0.00029630  41 t-inv F
  0.333333 -0.200000  0.000000    0.00029630  42 t-inv F
  0.000000 -0.333333  0.200000    0.00029630  42 t-inv F
  0.000000  0.333333 -0.200000    0.00029630  42 t-inv F
  0.200000  0.000000 -0.333333    0.00029630  42 t-inv F
 -0.200000  0.000000  0.333333    0.00029630  42 t-inv F
  0.200000  0.200000  0.533333    0.00029630  42 t-inv F
 -0.200000 -0.200000 -0.533333    0.00029630  42 t-inv F
 -0.333333 -0.533333 -0.333333    0.00029630  42 t-inv F
  0.333333  0.533333  0.333333    0.00029630  42 t-inv F
  0.200000 -0.333333  0.000000    0.00029630  42 t-inv F
 -0.200000  0.333333  0.000000    0.00029630  42 t-inv F
 -0.533333 -0.200000 -0.200000    0.00029630  42 t-inv F
  0.533333  0.200000  0.200000    0.00029630  42 t-inv F
 -0.333333 -0.333333 -0.533333    0.00029630  42 t-inv F
  0.333333  0.333333  0.533333    0.00029630  42 t-inv F
  0.000000  0.200000 -0.333333    0.00029630  42 t-inv F
  0.000000 -0.200000  0.333333    0.00029630  42 t-inv F
 -0.200000 -0.533333 -0.200000    0.00029630  42 t-inv F
  0.200000  0.533333  0.200000    0.00029630  42 t-inv F
 -0.533333 -0.333333 -0.333333    0.00029630  42 t-inv F
  0.533333  0.333333  0.333333    0.00029630  42 t-inv F
 -0.333333  0.000000  0.200000    0.00029630  42 t-inv F
  0.333333  0.000000 -0.200000    0.00029630  42 t-inv F
  0.266667 -0.200000  0.000000    0.00029630  43 t-inv F
  0.000000 -0.266667  0.200000    0.00029630  43 t-inv F
  0.000000  0.266667 -0.200000    0.00029630  43 t-inv F
  0.200000  0.000000 -0.266667    0.00029630  43 t-inv F
 -0.200000  0.000000  0.266667    0.00029630  43 t-inv F
  0.200000  0.200000  0.466667    0.00029630  43 t-inv F
 -0.200000 -0.200000 -0.466667    0.00029630  43 t-inv F
 -0.266667 -0.466667 -0.266667    0.00029630  43 t-inv F
  0.266667  0.466667  0.266667    0.00029630  43 t-inv F
  0.200000 -0.266667  0.000000    0.00029630  43 t-inv F
 -0.200000  0.266667  0.000000    0.00029630  43 t-inv F
 -0.466667 -0.200000 -0.200000    0.00029630  43 t-inv F
  0.466667  0.200000  0.200000    0.00029630  43 t-inv F
 -0.266667 -0.266667 -0.466667    0.00029630  43 t-inv F
  0.266667  0.266667  0.466667    0.00029630  43 t-inv F
  0.000000  0.200000 -0.266667    0.00029630  43 t-inv F
  0.000000 -0.200000  0.266667    0.00029630  43 t-inv F
 -0.200000 -0.466667 -0.200000    0.00029630  43 t-inv F
  0.200000  0.466667  0.200000    0.00029630  43 t-inv F
 -0.466667 -0.266667 -0.266667    0.00029630  43 t-inv F
  0.466667  0.266667  0.266667    0.00029630  43 t-inv F
 -0.266667  0.000000  0.200000    0.00029630  43 t-inv F
  0.266667  0.000000 -0.200000    0.00029630  43 t-inv F
  0.200000 -0.200000  0.000000    0.00029630  44 t-inv F
  0.000000 -0.200000  0.200000    0.00029630  44 t-inv F
  0.000000  0.200000 -0.200000    0.00029630  44 t-inv F
  0.200000  0.000000 -0.200000    0.00029630  44 t-inv F
 -0.200000  0.000000  0.200000    0.00029630  44 t-inv F
  0.200000  0.200000  0.400000    0.00029630  44 t-inv F
 -0.200000 -0.200000 -0.400000    0.00029630  44 t-inv F
 -0.200000 -0.400000 -0.200000    0.00029630  44 t-inv F
  0.200000  0.400000  0.200000    0.00029630  44 t-inv F
 -0.400000 -0.200000 -0.200000    0.00029630  44 t-inv F
  0.400000  0.200000  0.200000    0.00029630  44 t-inv F
 -0.266667 -0.266667  0.000000    0.00029630  45 t-inv F
  0.000000  0.266667  0.266667    0.00029630  45 t-inv F
  0.000000 -0.266667 -0.266667    0.00029630  45 t-inv F
  0.266667  0.000000  0.266667    0.00029630  45 t-inv F
 -0.266667  0.000000 -0.266667    0.00029630  45 t-inv F
 -0.333333 -0.266667  0.000000    0.00029630  46 t-inv F
  0.000000  0.333333  0.266667    0.00029630  46 t-inv F
  0.000000 -0.333333 -0.266667    0.00029630  46 t-inv F
  0.266667  0.000000  0.333333    0.00029630  46 t-inv F
 -0.266667  0.000000 -0.333333    0.00029630  46 t-inv F
  0.266667  0.266667 -0.066667    0.00029630  46 t-inv F
 -0.266667 -0.266667  0.066667    0.00029630  46 t-inv F
  0.333333  0.066667  0.333333    0.00029630  46 t-inv F
 -0.333333 -0.066667 -0.333333    0.00029630  46 t-inv F
  0.266667  0.333333  0.000000    0.00029630  46 t-inv F
 -0.266667 -0.333333  0.000000    0.00029630  46 t-inv F
  0.066667 -0.266667 -0.266667    0.00029630  46 t-inv F
 -0.066667  0.266667  0.266667    0.00029630  46 t-inv F
  0.333333  0.333333  0.066667    0.00029630  46 t-inv F
 -0.333333 -0.333333 -0.066667    0.00029630  46 t-inv F
  0.000000  0.266667  0.333333    0.00029630  46 t-inv F
  0.000000 -0.266667 -0.333333    0.00029630  46 t-inv F
 -0.266667  0.066667 -0.266667    0.00029630  46 t-inv F
  0.266667 -0.066667  0.266667    0.00029630  46 t-inv F
  0.066667  0.333333  0.333333    0.00029630  46 t-inv F
 -0.066667 -0.333333 -0.333333    0.00029630  46 t-inv F
  0.333333  0.000000  0.266667    0.00029630  46 t-inv F
 -0.333333  0.000000 -0.266667    0.00029630  46 t-inv F
 -0.400000 -0.266667  0.000000    0.00029630  47 t-inv F
  0.000000  0.400000  0.266667    0.00029630  47 t-inv F
  0.000000 -0.400000 -0.266667    0.00029630  47 t-inv F
  0.266667  0.000000  0.400000    0.00029630  47 t-inv F
 -0.266667  0.000000 -0.400000    0.00029630  47 t-inv F
  0.266667  0.266667 -0.133333    0.00029630  47 t-inv F
 -0.266667 -0.266667  0.133333    0.00029630  47 t-inv F
  0.400000  0.133333  0.400000    0.00029630  47 t-inv F
 -0.400000 -0.133333 -0.400000    0.00029630  47 t-inv F
  0.266667  0.400000  0.000000    0.00029630  47 t-inv F
 -0.266667 -0.400000  0.000000    0.00029630  47 t-inv F
  0.133333 -0.266667 -0.266667    0.00029630  47 t-inv F
 -0.133333  0.266667  0.266667    0.00029630  47 t-inv F
  0.400000  0.400000  0.133333    0.00029630  47 t-inv F
 -0.400000 -0.400000 -0.133333    0.00029630  47 t-inv F
  0.000000  0.266667  0.400000    0.00029630  47 t-inv F
  0.000000 -0.266667 -0.400000    0.00029630  47 t-inv F
 -0.266667  0.133333 -0.266667    0.00029630  47 t-inv F
  0.266667 -0.133333  0.266667    0.00029630  47 t-inv F
  0.133333  0.400000  0.400000    0.00029630  47 t-inv F
 -0.133333 -0.400000 -0.400000    0.00029630  47 t-inv F
  0.400000  0.000000  0.266667    0.00029630  47 t-inv F
 -0.400000  0.000000 -0.266667    0.00029630  47 t-inv F
 -0.466667 -0.266667  0.000000    0.00029630  48 t-inv F
  0.000000  0.466667  0.266667    0.00029630  48 t-inv F
  0.000000 -0.466667 -0.266667    0.00029630  48 t-inv F
  0.266667  0.000000  0.466667    0.00029630  48 t-inv F
 -0.266667  0.000000 -0.466667    0.00029630  48 t-inv F
  0.266667  0.266667 -0.200000    0.00029630  48 t-inv F
 -0.266667 -0.266667  0.200000    0.00029630  48 t-inv F
  0.466667  0.200000  0.466667    0.00029630  48 t-inv F
 -0.466667 -0.200000 -0.466667    0.00029630  48 t-inv F
  0.266667  0.466667  0.000000    0.00029630  48 t-inv F
 -0.266667 -0.466667  0.000000    0.00029630  48 t-inv F
  0.200000 -0.266667 -0.266667    0.00029630  48 t-inv F
 -0.200000  0.266667  0.266667    0.00029630  48 t-inv F
  0.466667  0.466667  0.200000    0.00029630  48 t-inv F
 -0.466667 -0.466667 -0.200000    0.00029630  48 t-inv F
  0.000000  0.266667  0.466667    0.00029630  48 t-inv F
  0.000000 -0.266667 -0.466667    0.00029630  48 t-inv F
 -0.266667  0.200000 -0.266667    0.00029630  48 t-inv F
  0.266667 -0.200000  0.266667    0.00029630  48 t-inv F
  0.200000  0.466667  0.466667    0.00029630  48 t-inv F
 -0.200000 -0.466667 -0.466667    0.00029630  48 t-inv F
  0.466667  0.000000  0.266667    0.00029630  48 t-inv F
 -0.466667  0.000000 -0.266667    0.00029630  48 t-inv F
  0.466667 -0.266667  0.000000    0.00029630  49 t-inv F
  0.000000 -0.466667  0.266667    0.00029630  49 t-inv F
  0.000000  0.466667 -0.266667    0.00029630  49 t-inv F
  0.266667  0.000000 -0.466667    0.00029630  49 t-inv F
 -0.266667  0.000000  0.466667    0.00029630  49 t-inv F
  0.266667  0.266667  0.733333    0.00029630  49 t-inv F
 -0.266667 -0.266667 -0.733333    0.00029630  49 t-inv F
 -0.466667 -0.733333 -0.466667    0.00029630  49 t-inv F
  0.466667  0.733333  0.466667    0.00029630  49 t-inv F
  0.266667 -0.466667  0.000000    0.00029630  49 t-inv F
 -0.266667  0.466667  0.000000    0.00029630  49 t-inv F
 -0.733333 -0.266667 -0.266667    0.00029630  49 t-inv F
  0.733333  0.266667  0.266667    0.00029630  49 t-inv F
 -0.466667 -0.466667 -0.733333    0.00029630  49 t-inv F
  0.466667  0.466667  0.733333    0.00029630  49 t-inv F
  0.000000  0.266667 -0.466667    0.00029630  49 t-inv F
  0.000000 -0.266667  0.466667    0.00029630  49 t-inv F
 -0.266667 -0.733333 -0.266667    0.00029630  49 t-inv F
  0.266667  0.733333  0.266667    0.00029630  49 t-inv F
 -0.733333 -0.466667 -0.466667    0.00029630  49 t-inv F
  0.733333  0.466667  0.466667    0.00029630  49 t-inv F
[...]
      9      23.4508      0.00000
     10      29.3979      0.00000

 k-point    91 :      -0.4667    0.3333    0.0667
  band No.  band energies     occupation 
      1     -15.7856      2.00000
      2      -2.4595      2.00000
      3      -0.6275      2.00000
      4       0.2215      2.00000
      5      14.1853      0.00000
      6      15.4517      0.00000
      7      17.3392      0.00000
      8      22.0935      0.00000
      9      23.6917      0.00000
     10      29.3503      0.00000

 k-point    92 :      -0.4000    0.3333    0.0667
  band No.  band energies     occupation 
      1     -15.7160      2.00000
      2      -2.3555      2.00000
      3      -1.1238      2.00000
      4       0.2536      2.00000
      5      14.3852      0.00000
      6      16.2342      0.00000
      7      17.0388      0.00000
      8      21.7718      0.00000
      9      23.8145      0.00000
     10      28.6509      0.00000

 k-point    93 :      -0.3333    0.3333    0.0667
  band No.  band energies     occupation 
      1     -15.7211      2.00000
      2      -2.1493      2.00000
      3      -1.4750      2.00000
      4       0.3514      2.00000
      5      14.6035      0.00000
      6      16.5272      0.00000
      7      16.9801      0.00000
      8      21.6565      0.00000
      9      24.0913      0.00000
     10      27.3811      0.00000

 k-point    94 :      -0.2667    0.3333    0.0667
  band No.  band energies     occupation 
      1     -15.7998      2.00000
      2      -2.1842      2.00000
      3      -1.2997      2.00000
      4       0.4945      2.00000
      5      14.5827      0.00000
      6      16.2269      0.00000
      7      17.3977      0.00000
      8      21.7232      0.00000
      9      24.7376      0.00000
     10      26.0268      0.00000

 k-point    95 :       0.4667    0.4000    0.0667
  band No.  band energies     occupation 
      1     -15.8333      2.00000
      2      -2.5696      2.00000
      3       0.0026      2.00000
      4       0.1324      2.00000
      5      13.7720      0.00000
      6      14.3167      0.00000
      7      17.6210      0.00000
      8      22.9171      0.00000
      9      23.5541      0.00000
     10      30.2818      0.00000

 k-point    96 :      -0.4667    0.4000    0.0667
  band No.  band energies     occupation 
      1     -15.7339      2.00000
      2      -2.5874      2.00000
      3      -0.3879      2.00000
      4       0.0711      2.00000
      5      13.9143      0.00000
      6      14.8433      0.00000
      7      17.3985      0.00000
      8      22.5111      0.00000
      9      23.8149      0.00000
     10      30.4083      0.00000

 k-point    97 :      -0.4000    0.4000    0.0667
  band No.  band energies     occupation 
      1     -15.6775      2.00000
      2      -2.4284      2.00000
      3      -0.9390      2.00000
      4       0.1026      2.00000
      5      14.1851      0.00000
      6      15.5871      0.00000
      7      17.1511      0.00000
      8      22.0057      0.00000
      9      23.8505      0.00000
     10      30.1078      0.00000

 k-point    98 :      -0.3333    0.4000    0.0667
  band No.  band energies     occupation 
      1     -15.6725      2.00000
      2      -2.1092      2.00000
      3      -1.4964      2.00000
      4       0.2024      2.00000
      5      14.5020      0.00000
      6      16.3331      0.00000
      7      16.8462      0.00000
      8      21.6812      0.00000
      9      23.8466      0.00000
     10      28.7691      0.00000

 k-point    99 :      -0.4667    0.4667    0.0667
  band No.  band energies     occupation 
      1     -15.6980      2.00000
      2      -2.7603      2.00000
      3      -0.1113      2.00000
      4      -0.0025      2.00000
      5      13.4878      0.00000
      6      14.4470      0.00000
      7      17.5616      0.00000
      8      23.0755      0.00000
      9      23.8476      0.00000
     10      30.4430      0.00000

 k-point   100 :      -0.4000    0.4667    0.0667
  band No.  band energies     occupation 
      1     -15.6701      2.00000
      2      -2.6445      2.00000
      3      -0.4779      2.00000
      4       0.0037      2.00000
      5      13.8036      0.00000
      6      14.8902      0.00000
      7      17.4073      0.00000
      8      22.5068      0.00000
      9      23.9506      0.00000
     10      30.7537      0.00000

 k-point   101 :       0.4000    0.2667    0.1333
  band No.  band energies     occupation 
      1     -16.2815      2.00000
      2      -1.8514      2.00000
      3       0.1370      2.00000
      4       0.7766      2.00000
      5      13.0490      0.00000
      6      15.5365      0.00000
      7      19.1132      0.00000
      8      22.0044      0.00000
      9      22.8393      0.00000
     10      27.1688      0.00000

 k-point   102 :       0.4667    0.2667    0.1333
  band No.  band energies     occupation 
      1     -16.0701      2.00000
      2      -2.2155      2.00000
      3      -0.2410      2.00000
      4       0.6243      2.00000
      5      13.6942      0.00000
      6      15.6130      0.00000
      7      18.4328      0.00000
      8      21.7992      0.00000
      9      23.6912      0.00000
     10      27.1516      0.00000

 k-point   103 :      -0.4667    0.2667    0.1333
  band No.  band energies     occupation 
      1     -15.8973      2.00000
      2      -2.5007      2.00000
      3      -0.5152      2.00000
      4       0.4894      2.00000
      5      13.9800      0.00000
      6      16.0933      0.00000
      7      17.9346      0.00000
      8      21.5461      0.00000
      9      24.4867      0.00000
     10      26.9051      0.00000

 k-point   104 :      -0.4000    0.2667    0.1333
  band No.  band energies     occupation 
      1     -15.8001      2.00000
      2      -2.6603      2.00000
      3      -0.6576      2.00000
      4       0.4113      2.00000
      5      14.0494      0.00000
      6      16.5467      0.00000
      7      17.6694      0.00000
      8      21.3675      0.00000
      9      24.9280      0.00000
     10      26.7024      0.00000

 k-point   105 :       0.4667    0.3333    0.1333
  band No.  band energies     occupation 
      1     -16.0045      2.00000
      2      -2.2371      2.00000
      3      -0.2010      2.00000
      4       0.3992      2.00000
      5      14.1171      0.00000
      6      14.9234      0.00000
      7      18.0174      0.00000
      8      21.9915      0.00000
      9      23.5610      0.00000
     10      28.2155      0.00000

 k-point   106 :      -0.4667    0.3333    0.1333
  band No.  band energies     occupation 
      1     -15.8484      2.00000
      2      -2.3558      2.00000
      3      -0.6039      2.00000
      4       0.2481      2.00000
      5      14.5479      0.00000
      6      15.3711      0.00000
      7      17.4917      0.00000
      8      21.6245      0.00000
      9      24.2224      0.00000
     10      27.8953      0.00000

 k-point   107 :      -0.4000    0.3333    0.1333
  band No.  band energies     occupation 
      1     -15.7468      2.00000
      2      -2.3648      2.00000
      3      -0.9641      2.00000
      4       0.1706      2.00000
      5      14.6769      0.00000
      6      16.1019      0.00000
      7      17.1391      0.00000
      8      21.2308      0.00000
      9      24.7014      0.00000
     10      27.4274      0.00000

 k-point   108 :      -0.3333    0.3333    0.1333
  band No.  band energies     occupation 
      1     -15.7211      2.00000
      2      -2.3036      2.00000
      3      -1.1758      2.00000
      4       0.1882      2.00000
      5      14.7866      0.00000
      6      16.3793      0.00000
      7      17.0600      0.00000
      8      21.0613      0.00000
      9      25.0710      0.00000
     10      26.7807      0.00000

 k-point   109 :      -0.2667    0.3333    0.1333
  band No.  band energies     occupation 
      1     -15.7771      2.00000
      2      -2.2690      2.00000
      3      -1.1043      2.00000
      4       0.2917      2.00000
      5      14.8083      0.00000
      6      16.0361      0.00000
      7      17.2777      0.00000
      8      21.2485      0.00000
      9      25.3360      0.00000
     10      26.1244      0.00000

 k-point   110 :      -0.2000    0.3333    0.1333
  band No.  band energies     occupation 
      1     -15.9017      2.00000
      2      -2.2680      2.00000
      3      -0.7476      2.00000
      4       0.4530      2.00000
      5      14.4787      0.00000
      6      15.6282      0.00000
      7      17.7515      0.00000
      8      21.5753      0.00000
      9      24.5648      0.00000
     10      26.5716      0.00000

 k-point   111 :      -0.4667    0.4000    0.1333
  band No.  band energies     occupation 
      1     -15.7910      2.00000
      2      -2.4368      2.00000
      3      -0.4484      2.00000
      4       0.0528      2.00000
      5      14.4876      0.00000
      6      14.9131      0.00000
      7      17.3281      0.00000
      8      21.9138      0.00000
      9      24.0981      0.00000
     10      29.1515      0.00000

 k-point   112 :      -0.4000    0.4000    0.1333
  band No.  band energies     occupation 
      1     -15.7020      2.00000
      2      -2.3307      2.00000
      3      -0.8864      2.00000
      4      -0.0539      2.00000
      5      14.7190      0.00000
      6      15.6633      0.00000
      7      16.9852      0.00000
      8      21.2925      0.00000
      9      24.5890      0.00000
     10      28.6586      0.00000

 k-point   113 :      -0.3333    0.4000    0.1333
  band No.  band energies     occupation 
      1     -15.6686      2.00000
      2      -2.0705      2.00000
      3      -1.3944      2.00000
      4      -0.0252      2.00000
      5      14.9879      0.00000
      6      16.3430      0.00000
      7      16.6756      0.00000
      8      20.8291      0.00000
      9      24.9144      0.00000
     10      27.8282      0.00000

 k-point   114 :      -0.2667    0.4000    0.1333
  band No.  band energies     occupation 
      1     -15.6949      2.00000
      2      -1.9130      2.00000
      3      -1.6149      2.00000
      4       0.1048      2.00000
      5      15.1757      0.00000
      6      16.2250      0.00000
      7      16.8476      0.00000
      8      20.8624      0.00000
      9      25.2869      0.00000
     10      26.6932      0.00000

 k-point   115 :      -0.4000    0.4667    0.1333
  band No.  band energies     occupation 
      1     -15.6742      2.00000
      2      -2.5015      2.00000
      3      -0.5770      2.00000
      4      -0.1601      2.00000
      5      14.2630      0.00000
      6      15.2007      0.00000
      7      17.2118      0.00000
      8      21.7633      0.00000
      9      24.3922      0.00000
     10      30.1090      0.00000

 k-point   116 :      -0.3333    0.4667    0.1333
  band No.  band energies     occupation 
      1     -15.6514      2.00000
      2      -2.2846      2.00000
      3      -1.0087      2.00000
      4      -0.1695      2.00000
      5      14.6752      0.00000
      6      15.8041      0.00000
      7      16.9390      0.00000
      8      21.0908      0.00000
      9      24.7232      0.00000
     10      29.1767      0.00000

 k-point   117 :      -0.4000    0.4000    0.2000
  band No.  band energies     occupation 
      1     -15.7380      2.00000
      2      -2.2208      2.00000
      3      -1.0316      2.00000
      4       0.0329      2.00000
      5      15.3902      0.00000
      6      15.4311      0.00000
      7      17.0019      0.00000
      8      21.0252      0.00000
      9      25.1178      0.00000
     10      27.1843      0.00000

 k-point   118 :      -0.3333    0.4000    0.2000
  band No.  band energies     occupation 
      1     -15.6758      2.00000
      2      -2.0134      2.00000
      3      -1.3869      2.00000
      4      -0.1023      2.00000
      5      15.4783      0.00000
      6      16.0450      0.00000
      7      16.7390      0.00000
      8      20.5008      0.00000
      9      25.8118      0.00000
     10      26.6773      0.00000

 k-point   119 :      -0.3333    0.4667    0.2000
  band No.  band energies     occupation 
      1     -15.6510      2.00000
      2      -2.0931      2.00000
      3      -1.1790      2.00000
      4      -0.2884      2.00000
      5      15.2594      0.00000
      6      16.0880      0.00000
      7      16.6367      0.00000
      8      20.4809      0.00000
      9      25.4019      0.00000
     10      27.9020      0.00000

 k-point   120 :      -0.2667    0.4667    0.2000
  band No.  band energies     occupation 
      1     -15.6425      2.00000
      2      -1.7787      2.00000
      3      -1.5756      2.00000
      4      -0.2961      2.00000
      5      15.6607      0.00000
      6      16.2078      0.00000
      7      16.5252      0.00000
      8      20.1099      0.00000
      9      26.0220      0.00000
     10      26.9867      0.00000


--------------------------------------------------------------------------------------------------------


 soft charge-density along one line, spin component           1
         0         1         2         3         4         5         6         7         8         9
 total charge-density along one line
 
 pseudopotential strength for first ion, spin component:           1
  2.844   9.045  -0.000  -0.000  -0.000  -0.000  -0.000  -0.000
  9.045  28.488  -0.000  -0.000  -0.000  -0.000  -0.000  -0.000
 -0.000  -0.000   7.211   0.000   0.000  10.422   0.000   0.000
 -0.000  -0.000   0.000   7.211   0.000   0.000  10.422   0.000
 -0.000  -0.000   0.000   0.000   7.211   0.000   0.000  10.422
 -0.000  -0.000  10.422   0.000   0.000  14.191   0.000   0.000
 -0.000  -0.000   0.000  10.422   0.000   0.000  14.191   0.000
 -0.000  -0.000   0.000   0.000  10.422   0.000   0.000  14.191
  0.000   0.000  -0.000  -0.000  -0.000  -0.000  -0.000  -0.000
  0.000   0.000  -0.000  -0.000  -0.000  -0.000  -0.000  -0.000
 -0.000  -0.000   0.000  -0.000   0.000   0.000  -0.000   0.000
  0.000   0.000  -0.000  -0.000  -0.000  -0.000  -0.000  -0.000
  0.000   0.000   0.000   0.000  -0.000   0.000   0.000  -0.000
 total augmentation occupancy for first ion, spin component:           1
  1.164  -0.092   0.000   0.000   0.000  -0.000  -0.000  -0.000  -0.000   0.000   0.000  -0.000  -0.000
 -0.092   0.008  -0.000   0.000   0.000   0.000   0.000   0.000   0.000  -0.000  -0.000   0.000   0.000
  0.000  -0.000   0.141   0.000  -0.000  -0.024  -0.000   0.000  -0.000  -0.000   0.000   0.000  -0.000
  0.000   0.000   0.000   0.141  -0.000  -0.000  -0.024   0.000  -0.000  -0.000  -0.000  -0.000   0.000
  0.000   0.000  -0.000  -0.000   0.141   0.000   0.000  -0.024  -0.000  -0.000  -0.000  -0.000  -0.000
 -0.000   0.000  -0.024  -0.000   0.000   0.004   0.000  -0.000   0.000   0.000  -0.000  -0.000   0.000
 -0.000   0.000  -0.000  -0.024   0.000   0.000   0.004  -0.000   0.000   0.000   0.000   0.000  -0.000
 -0.000   0.000   0.000   0.000  -0.024  -0.000  -0.000   0.004   0.000   0.000   0.000   0.000   0.000
 -0.000   0.000  -0.000  -0.000  -0.000   0.000   0.000   0.000   0.012  -0.000  -0.000   0.000   0.000
  0.000  -0.000  -0.000  -0.000  -0.000   0.000   0.000   0.000  -0.000   0.012  -0.000  -0.000   0.000
  0.000  -0.000   0.000  -0.000  -0.000  -0.000   0.000   0.000  -0.000  -0.000   0.052   0.000   0.000
 -0.000   0.000   0.000  -0.000  -0.000  -0.000   0.000   0.000   0.000  -0.000   0.000   0.012   0.000
 -0.000   0.000  -0.000   0.000  -0.000   0.000  -0.000   0.000   0.000   0.000   0.000   0.000   0.052


------------------------ aborting loop because EDIFF is reached ----------------------------------------


    CHARGE:  cpu time    0.1077: real time    0.1078
    FORLOC:  cpu time    0.0002: real time    0.0002
    FORHF :  cpu time  273.2564: real time  273.4353
    FORNL :  cpu time    0.0052: real time    0.0052
    FORCOR:  cpu time    0.0063: real time    0.0063
    FORHAR:  cpu time    0.0008: real time    0.0016
    MIXING:  cpu time    0.0000: real time    0.0000
    OFIELD:  cpu time    0.0000: real time    0.0000

 VOLUME and BASIS-vectors are now :
 -----------------------------------------------------------------------------
  energy-cutoff  :      400.00
  volume of cell :       18.69
      direct lattice vectors                 reciprocal lattice vectors
     2.106350000  2.106350000  0.000000000     0.237377454  0.237377454 -0.237377454
     0.000000000  2.106350000  2.106350000    -0.237377454  0.237377454  0.237377454
     2.106350000  0.000000000  2.106350000     0.237377454 -0.237377454  0.237377454

  length of vectors
     2.978828737  2.978828737  2.978828737     0.411149811  0.411149811  0.411149811


 FORCES acting on ions
    electron-ion (+dipol)            ewald-force                    non-local-force                 convergence-correction
 -----------------------------------------------------------------------------------------------
   -.296E-11 0.116E-11 0.712E-11   -.840E-15 -.574E-15 -.176E-15   -.646E-26 0.000E+00 -.646E-26   -.321E-09 -.208E-09 -.167E-09
   -.658E-10 0.246E-10 0.163E-09   -.429E-15 0.277E-15 0.270E-15   0.517E-25 -.258E-25 0.517E-25   0.445E-08 0.612E-08 0.611E-08
 -----------------------------------------------------------------------------------------------
   -.688E-10 0.257E-10 0.170E-09   -.127E-14 -.297E-15 0.943E-16   0.452E-25 -.258E-25 0.452E-25   0.413E-08 0.591E-08 0.595E-08
 
 
 POSITION                                       TOTAL-FORCE (eV/Angst)
 -----------------------------------------------------------------------------------
      0.00000      0.00000      0.00000        -0.000000      0.000000      0.000000
      2.10635      2.10635      2.10635         0.000000     -0.000000     -0.000000
 -----------------------------------------------------------------------------------
    total drift:                                0.000000      0.000000      0.000000


--------------------------------------------------------------------------------------------------------



  FREE ENERGIE OF THE ION-ELECTRON SYSTEM (eV)
  ---------------------------------------------------
  free  energy   TOTEN  =       -14.81476609 eV

  energy  without entropy=      -14.81476609  energy(sigma->0) =      -14.81476609
 


--------------------------------------------------------------------------------------------------------


    POTLOK:  cpu time    0.0069: real time    0.0069


--------------------------------------------------------------------------------------------------------


     LOOP+:  cpu time 7569.2041: real time 7573.2149
    4ORBIT:  cpu time    0.0000: real time    0.0000
 BZINTS: Fermi energy:  1.563595;  8.000000 electrons
         Band energy: -35.624316;  BLOECHL correction:  0.000000

 total amount of memory used by VASP on root node    34501. kBytes
========================================================================

   base      :      30000. kBytes
   nonl-proj :       2999. kBytes
   fftplans  :        228. kBytes
   grid      :        267. kBytes
   one-center:          8. kBytes
   HF        :         33. kBytes
   nonlr-proj:        448. kBytes
   wavefun   :        518. kBytes
 
  
  
 General timing and accounting informations for this job:
 ========================================================
  
                  Total CPU time used (sec):     7572.744
                            User time (sec):     6084.931
                          System time (sec):     1487.813
                         Elapsed time (sec):     7577.791
  
                   Maximum memory used (kb):      193628.
                   Average memory used (kb):           0.
  
                          Minor page faults:        27383
                          Major page faults:           21
                 Voluntary context switches:         1696
