<?xml version="1.0" encoding="ISO-8859-1"?>
<modeling>
 <generator>
  <i name="program" type="string">vasp </i>
  <i name="version" type="string">5.4.1  </i>
  <i name="subversion" type="string">24Jun15 (build Dec 08 2018 00:28:02) complex                          parallel </i>
  <i name="platform" type="string">pkvasp5.4.1 </i>
  <i name="date" type="string">2023 10 02 </i>
  <i name="time" type="string">08:32:37 </i>
 </generator>
 <incar>
  <i type="string" name="SYSTEM"> Mg1O1</i>
  <i type="int" name="ISTART">     1</i>
  <i type="string" name="PREC">acc</i>
  <i type="string" name="ALGO"> Normal</i>
  <i type="int" name="NSIM">     4</i>
  <i type="int" name="NELM">    40</i>
  <i type="int" name="IBRION">     2</i>
  <i name="EDIFF">      0.00000100</i>
  <i type="int" name="NSW">     0</i>
  <i type="int" name="ISIF">     0</i>
  <i name="POTIM">      0.25000000</i>
  <i type="int" name="NEDOS">  1401</i>
  <i type="logical" name="LREAL"> F  </i>
  <i type="logical" name="LPLANE"> T  </i>
  <i type="int" name="ISMEAR">    -5</i>
  <i name="SIGMA">      0.00000000</i>
  <i type="int" name="NWRITE">     0</i>
  <i type="logical" name="LWAVE"> F  </i>
  <i type="logical" name="LCHARG"> F  </i>
  <v type="int" name="KPOINT_BSE">    -1     0     0     0</v>
  <i type="int" name="NELM">    40</i>
  <i type="logical" name="LHFCALC"> T  </i>
  <i type="string" name="GGA"> PE</i>
 </incar>
 <kpoints>
  <generation param="Gamma">
   <v type="int" name="divisions">      15       15       15 </v>
   <v name="usershift">      0.00000000       0.00000000       0.00000000 </v>
   <v name="genvec1">      0.06666667       0.00000000       0.00000000 </v>
   <v name="genvec2">      0.00000000       0.06666667       0.00000000 </v>
   <v name="genvec3">      0.00000000       0.00000000       0.06666667 </v>
   <v name="shift">      0.00000000       0.00000000       0.00000000 </v>
  </generation>
  <varray name="kpointlist" >
   <v>       0.00000000       0.00000000       0.00000000 </v>
   <v>       0.06666667       0.00000000       0.00000000 </v>
   <v>       0.13333333       0.00000000       0.00000000 </v>
   <v>       0.20000000       0.00000000       0.00000000 </v>
   <v>       0.26666667       0.00000000       0.00000000 </v>
   <v>       0.33333333       0.00000000       0.00000000 </v>
   <v>       0.40000000       0.00000000       0.00000000 </v>
   <v>       0.46666667       0.00000000       0.00000000 </v>
   <v>       0.06666667       0.06666667       0.00000000 </v>
   <v>       0.13333333       0.06666667       0.00000000 </v>
   <v>       0.20000000       0.06666667       0.00000000 </v>
   <v>       0.26666667       0.06666667       0.00000000 </v>
   <v>       0.33333333       0.06666667       0.00000000 </v>
   <v>       0.40000000       0.06666667       0.00000000 </v>
   <v>       0.46666667       0.06666667       0.00000000 </v>
   <v>      -0.46666667       0.06666667       0.00000000 </v>
   <v>      -0.40000000       0.06666667       0.00000000 </v>
   <v>      -0.33333333       0.06666667       0.00000000 </v>
   <v>      -0.26666667       0.06666667       0.00000000 </v>
   <v>      -0.20000000       0.06666667       0.00000000 </v>
   <v>      -0.13333333       0.06666667       0.00000000 </v>
   <v>      -0.06666667       0.06666667       0.00000000 </v>
   <v>       0.13333333       0.13333333       0.00000000 </v>
   <v>       0.20000000       0.13333333       0.00000000 </v>
   <v>       0.26666667       0.13333333       0.00000000 </v>
   <v>       0.33333333       0.13333333       0.00000000 </v>
   <v>       0.40000000       0.13333333       0.00000000 </v>
   <v>       0.46666667       0.13333333       0.00000000 </v>
   <v>      -0.46666667       0.13333333       0.00000000 </v>
   <v>      -0.40000000       0.13333333       0.00000000 </v>
   <v>      -0.33333333       0.13333333       0.00000000 </v>
   <v>      -0.26666667       0.13333333       0.00000000 </v>
   <v>      -0.20000000       0.13333333       0.00000000 </v>
   <v>      -0.13333333       0.13333333       0.00000000 </v>
   <v>       0.20000000       0.20000000       0.00000000 </v>
   <v>       0.26666667       0.20000000       0.00000000 </v>
   <v>       0.33333333       0.20000000       0.00000000 </v>
   <v>       0.40000000       0.20000000       0.00000000 </v>
   <v>       0.46666667       0.20000000       0.00000000 </v>
   <v>      -0.46666667       0.20000000       0.00000000 </v>
   <v>      -0.40000000       0.20000000       0.00000000 </v>
   <v>      -0.33333333       0.20000000       0.00000000 </v>
   <v>      -0.26666667       0.20000000       0.00000000 </v>
   <v>      -0.20000000       0.20000000       0.00000000 </v>
   <v>       0.26666667       0.26666667       0.00000000 </v>
   <v>       0.33333333       0.26666667       0.00000000 </v>
   <v>       0.40000000       0.26666667       0.00000000 </v>
   <v>       0.46666667       0.26666667       0.00000000 </v>
   <v>      -0.46666667       0.26666667       0.00000000 </v>
   <v>      -0.40000000       0.26666667       0.00000000 </v>
   <v>      -0.33333333       0.26666667       0.00000000 </v>
   <v>      -0.26666667       0.26666667       0.00000000 </v>
   <v>       0.33333333       0.33333333       0.00000000 </v>
   <v>       0.40000000       0.33333333       0.00000000 </v>
   <v>       0.46666667       0.33333333       0.00000000 </v>
   <v>      -0.46666667       0.33333333       0.00000000 </v>
   <v>      -0.40000000       0.33333333       0.00000000 </v>
   <v>      -0.33333333       0.33333333       0.00000000 </v>
   <v>       0.40000000       0.40000000       0.00000000 </v>
   <v>       0.46666667       0.40000000       0.00000000 </v>
   <v>      -0.46666667       0.40000000       0.00000000 </v>
   <v>      -0.40000000       0.40000000       0.00000000 </v>
   <v>       0.46666667       0.46666667       0.00000000 </v>
   <v>      -0.46666667       0.46666667       0.00000000 </v>
   <v>       0.20000000       0.13333333       0.06666667 </v>
   <v>       0.26666667       0.13333333       0.06666667 </v>
   <v>       0.33333333       0.13333333       0.06666667 </v>
   <v>       0.40000000       0.13333333       0.06666667 </v>
   <v>       0.46666667       0.13333333       0.06666667 </v>
   <v>      -0.46666667       0.13333333       0.06666667 </v>
   <v>       0.26666667       0.20000000       0.06666667 </v>
   <v>       0.33333333       0.20000000       0.06666667 </v>
   <v>       0.40000000       0.20000000       0.06666667 </v>
   <v>       0.46666667       0.20000000       0.06666667 </v>
   <v>      -0.46666667       0.20000000       0.06666667 </v>
   <v>      -0.40000000       0.20000000       0.06666667 </v>
   <v>      -0.33333333       0.20000000       0.06666667 </v>
   <v>      -0.26666667       0.20000000       0.06666667 </v>
   <v>      -0.20000000       0.20000000       0.06666667 </v>
   <v>      -0.13333333       0.20000000       0.06666667 </v>
   <v>       0.33333333       0.26666667       0.06666667 </v>
   <v>       0.40000000       0.26666667       0.06666667 </v>
   <v>       0.46666667       0.26666667       0.06666667 </v>
   <v>      -0.46666667       0.26666667       0.06666667 </v>
   <v>      -0.40000000       0.26666667       0.06666667 </v>
   <v>      -0.33333333       0.26666667       0.06666667 </v>
   <v>      -0.26666667       0.26666667       0.06666667 </v>
   <v>      -0.20000000       0.26666667       0.06666667 </v>
   <v>       0.40000000       0.33333333       0.06666667 </v>
   <v>       0.46666667       0.33333333       0.06666667 </v>
   <v>      -0.46666667       0.33333333       0.06666667 </v>
   <v>      -0.40000000       0.33333333       0.06666667 </v>
   <v>      -0.33333333       0.33333333       0.06666667 </v>
   <v>      -0.26666667       0.33333333       0.06666667 </v>
   <v>       0.46666667       0.40000000       0.06666667 </v>
   <v>      -0.46666667       0.40000000       0.06666667 </v>
   <v>      -0.40000000       0.40000000       0.06666667 </v>
   <v>      -0.33333333       0.40000000       0.06666667 </v>
   <v>      -0.46666667       0.46666667       0.06666667 </v>
   <v>      -0.40000000       0.46666667       0.06666667 </v>
   <v>       0.40000000       0.26666667       0.13333333 </v>
   <v>       0.46666667       0.26666667       0.13333333 </v>
   <v>      -0.46666667       0.26666667       0.13333333 </v>
   <v>      -0.40000000       0.26666667       0.13333333 </v>
   <v>       0.46666667       0.33333333       0.13333333 </v>
   <v>      -0.46666667       0.33333333       0.13333333 </v>
   <v>      -0.40000000       0.33333333       0.13333333 </v>
   <v>      -0.33333333       0.33333333       0.13333333 </v>
   <v>      -0.26666667       0.33333333       0.13333333 </v>
   <v>      -0.20000000       0.33333333       0.13333333 </v>
   <v>      -0.46666667       0.40000000       0.13333333 </v>
   <v>      -0.40000000       0.40000000       0.13333333 </v>
   <v>      -0.33333333       0.40000000       0.13333333 </v>
   <v>      -0.26666667       0.40000000       0.13333333 </v>
   <v>      -0.40000000       0.46666667       0.13333333 </v>
   <v>      -0.33333333       0.46666667       0.13333333 </v>
   <v>      -0.40000000       0.40000000       0.20000000 </v>
   <v>      -0.33333333       0.40000000       0.20000000 </v>
   <v>      -0.33333333       0.46666667       0.20000000 </v>
   <v>      -0.26666667       0.46666667       0.20000000 </v>
  </varray>
  <varray name="weights" >
   <v>       0.00029630 </v>
   <v>       0.00237037 </v>
   <v>       0.00237037 </v>
   <v>       0.00237037 </v>
   <v>       0.00237037 </v>
   <v>       0.00237037 </v>
   <v>       0.00237037 </v>
   <v>       0.00237037 </v>
   <v>       0.00177778 </v>
   <v>       0.00711111 </v>
   <v>       0.00711111 </v>
   <v>       0.00711111 </v>
   <v>       0.00711111 </v>
   <v>       0.00711111 </v>
   <v>       0.00711111 </v>
   <v>       0.00711111 </v>
   <v>       0.00711111 </v>
   <v>       0.00711111 </v>
   <v>       0.00711111 </v>
   <v>       0.00711111 </v>
   <v>       0.00711111 </v>
   <v>       0.00355556 </v>
   <v>       0.00177778 </v>
   <v>       0.00711111 </v>
   <v>       0.00711111 </v>
   <v>       0.00711111 </v>
   <v>       0.00711111 </v>
   <v>       0.00711111 </v>
   <v>       0.00711111 </v>
   <v>       0.00711111 </v>
   <v>       0.00711111 </v>
   <v>       0.00711111 </v>
   <v>       0.00711111 </v>
   <v>       0.00355556 </v>
   <v>       0.00177778 </v>
   <v>       0.00711111 </v>
   <v>       0.00711111 </v>
   <v>       0.00711111 </v>
   <v>       0.00711111 </v>
   <v>       0.00711111 </v>
   <v>       0.00711111 </v>
   <v>       0.00711111 </v>
   <v>       0.00711111 </v>
   <v>       0.00355556 </v>
   <v>       0.00177778 </v>
   <v>       0.00711111 </v>
   <v>       0.00711111 </v>
   <v>       0.00711111 </v>
   <v>       0.00711111 </v>
   <v>       0.00711111 </v>
   <v>       0.00711111 </v>
   <v>       0.00355556 </v>
   <v>       0.00177778 </v>
   <v>       0.00711111 </v>
   <v>       0.00711111 </v>
   <v>       0.00711111 </v>
   <v>       0.00711111 </v>
   <v>       0.00355556 </v>
   <v>       0.00177778 </v>
   <v>       0.00711111 </v>
   <v>       0.00711111 </v>
   <v>       0.00355556 </v>
   <v>       0.00177778 </v>
   <v>       0.00355556 </v>
   <v>       0.00711111 </v>
   <v>       0.01422222 </v>
   <v>       0.01422222 </v>
   <v>       0.01422222 </v>
   <v>       0.01422222 </v>
   <v>       0.01422222 </v>
   <v>       0.00711111 </v>
   <v>       0.01422222 </v>
   <v>       0.01422222 </v>
   <v>       0.01422222 </v>
   <v>       0.01422222 </v>
   <v>       0.01422222 </v>
   <v>       0.01422222 </v>
   <v>       0.01422222 </v>
   <v>       0.01422222 </v>
   <v>       0.00711111 </v>
   <v>       0.00711111 </v>
   <v>       0.01422222 </v>
   <v>       0.01422222 </v>
   <v>       0.01422222 </v>
   <v>       0.01422222 </v>
   <v>       0.01422222 </v>
   <v>       0.01422222 </v>
   <v>       0.00711111 </v>
   <v>       0.00711111 </v>
   <v>       0.01422222 </v>
   <v>       0.01422222 </v>
   <v>       0.01422222 </v>
   <v>       0.01422222 </v>
   <v>       0.00711111 </v>
   <v>       0.00711111 </v>
   <v>       0.01422222 </v>
   <v>       0.01422222 </v>
   <v>       0.00711111 </v>
   <v>       0.00711111 </v>
   <v>       0.00711111 </v>
   <v>       0.00711111 </v>
   <v>       0.01422222 </v>
   <v>       0.01422222 </v>
   <v>       0.01422222 </v>
   <v>       0.00711111 </v>
   <v>       0.01422222 </v>
   <v>       0.01422222 </v>
   <v>       0.01422222 </v>
   <v>       0.01422222 </v>
   <v>       0.00711111 </v>
   <v>       0.00711111 </v>
   <v>       0.01422222 </v>
   <v>       0.01422222 </v>
   <v>       0.00711111 </v>
   <v>       0.00711111 </v>
   <v>       0.00711111 </v>
   <v>       0.00711111 </v>
   <v>       0.01422222 </v>
   <v>       0.00711111 </v>
   <v>       0.00711111 </v>
  </varray>
  <varray name="tetrahedronlist"  type="int" >
   <v type="int" >       24        1        2        2        9 </v>
   <v type="int" >       48        2        9       10       22 </v>
   <v type="int" >       48        2        3       10       22 </v>
   <v type="int" >       24        2        2        9       22 </v>
   <v type="int" >       48        3       10       11       21 </v>
   <v type="int" >       48        3        4       11       21 </v>
   <v type="int" >       48        3       10       21       22 </v>
   <v type="int" >       48        4       11       12       20 </v>
   <v type="int" >       48        4        5       12       20 </v>
   <v type="int" >       48        4       11       20       21 </v>
   <v type="int" >       48        5       12       13       19 </v>
   <v type="int" >       48        5        6       13       19 </v>
   <v type="int" >       48        5       12       19       20 </v>
   <v type="int" >       48        6       13       14       18 </v>
   <v type="int" >       48        6        7       14       18 </v>
   <v type="int" >       48        6       13       18       19 </v>
   <v type="int" >       48        7       14       15       17 </v>
   <v type="int" >       48        7        8       15       17 </v>
   <v type="int" >       48        7       14       17       18 </v>
   <v type="int" >       48        8       15       16       16 </v>
   <v type="int" >       24        8        8       16       16 </v>
   <v type="int" >       48        8       15       16       17 </v>
   <v type="int" >       24        9       10       10       23 </v>
   <v type="int" >       24        9       10       10       22 </v>
   <v type="int" >       48       10       23       24       65 </v>
   <v type="int" >       48       10       11       24       65 </v>
   <v type="int" >       48       10       11       21       65 </v>
   <v type="int" >       24       10       10       23       65 </v>
   <v type="int" >       24       10       10       22       65 </v>
   <v type="int" >       48       10       21       22       65 </v>
   <v type="int" >       48       11       24       25       66 </v>
   <v type="int" >       48       11       12       25       66 </v>
   <v type="int" >       48       11       12       20       66 </v>
   <v type="int" >       48       11       24       65       66 </v>
   <v type="int" >       48       11       21       65       66 </v>
   <v type="int" >       48       11       20       21       66 </v>
   <v type="int" >       48       12       25       26       67 </v>
   <v type="int" >       48       12       13       26       67 </v>
   <v type="int" >       48       12       13       19       67 </v>
   <v type="int" >       48       12       25       66       67 </v>
   <v type="int" >       48       12       20       66       67 </v>
   <v type="int" >       48       12       19       20       67 </v>
   <v type="int" >       48       13       26       27       68 </v>
   <v type="int" >       48       13       14       27       68 </v>
   <v type="int" >       48       13       14       18       68 </v>
   <v type="int" >       48       13       26       67       68 </v>
   <v type="int" >       48       13       19       67       68 </v>
   <v type="int" >       48       13       18       19       68 </v>
   <v type="int" >       48       14       27       28       69 </v>
   <v type="int" >       48       14       15       28       69 </v>
   <v type="int" >       48       14       15       17       69 </v>
   <v type="int" >       48       14       27       68       69 </v>
   <v type="int" >       48       14       18       68       69 </v>
   <v type="int" >       48       14       17       18       69 </v>
   <v type="int" >       48       15       28       29       70 </v>
   <v type="int" >       48       15       16       29       70 </v>
   <v type="int" >       48       15       16       16       70 </v>
   <v type="int" >       48       15       28       69       70 </v>
   <v type="int" >       48       15       17       69       70 </v>
   <v type="int" >       48       15       16       17       70 </v>
   <v type="int" >       48       16       29       30       70 </v>
   <v type="int" >       48       16       17       30       70 </v>
   <v type="int" >       48       16       29       70       70 </v>
   <v type="int" >       24       16       16       70       70 </v>
   <v type="int" >       48       17       30       31       69 </v>
   <v type="int" >       48       17       18       31       69 </v>
   <v type="int" >       48       17       30       69       70 </v>
   <v type="int" >       48       18       31       32       68 </v>
   <v type="int" >       48       18       19       32       68 </v>
   <v type="int" >       48       18       31       68       69 </v>
   <v type="int" >       48       19       32       33       67 </v>
   <v type="int" >       48       19       20       33       67 </v>
   <v type="int" >       48       19       32       67       68 </v>
   <v type="int" >       48       20       33       34       66 </v>
   <v type="int" >       48       20       21       34       66 </v>
   <v type="int" >       48       20       33       66       67 </v>
   <v type="int" >       24       21       21       34       65 </v>
   <v type="int" >       24       21       21       22       65 </v>
   <v type="int" >       48       21       34       65       66 </v>
   <v type="int" >       24       23       24       24       35 </v>
   <v type="int" >       24       23       24       24       65 </v>
   <v type="int" >       48       24       35       36       71 </v>
   <v type="int" >       48       24       25       36       71 </v>
   <v type="int" >       48       24       25       66       71 </v>
   <v type="int" >       24       24       24       35       71 </v>
   <v type="int" >       24       24       24       65       71 </v>
   <v type="int" >       48       24       65       66       71 </v>
   <v type="int" >       48       25       36       37       72 </v>
   <v type="int" >       48       25       26       37       72 </v>
   <v type="int" >       48       25       26       67       72 </v>
   <v type="int" >       48       25       36       71       72 </v>
   <v type="int" >       48       25       66       71       72 </v>
   <v type="int" >       48       25       66       67       72 </v>
   <v type="int" >       48       26       37       38       73 </v>
   <v type="int" >       48       26       27       38       73 </v>
   <v type="int" >       48       26       27       68       73 </v>
   <v type="int" >       48       26       37       72       73 </v>
   <v type="int" >       48       26       67       72       73 </v>
   <v type="int" >       48       26       67       68       73 </v>
   <v type="int" >       48       27       38       39       74 </v>
   <v type="int" >       48       27       28       39       74 </v>
   <v type="int" >       48       27       28       69       74 </v>
   <v type="int" >       48       27       38       73       74 </v>
   <v type="int" >       48       27       68       73       74 </v>
   <v type="int" >       48       27       68       69       74 </v>
   <v type="int" >       48       28       39       40       75 </v>
   <v type="int" >       48       28       29       40       75 </v>
   <v type="int" >       48       28       29       70       75 </v>
   <v type="int" >       48       28       39       74       75 </v>
   <v type="int" >       48       28       69       74       75 </v>
   <v type="int" >       48       28       69       70       75 </v>
   <v type="int" >       48       29       40       41       76 </v>
   <v type="int" >       48       29       30       41       76 </v>
   <v type="int" >       48       29       30       70       76 </v>
   <v type="int" >       48       29       40       75       76 </v>
   <v type="int" >       48       29       70       75       76 </v>
   <v type="int" >       48       29       70       70       76 </v>
   <v type="int" >       48       30       41       42       77 </v>
   <v type="int" >       48       30       31       42       77 </v>
   <v type="int" >       48       30       31       69       77 </v>
   <v type="int" >       48       30       41       76       77 </v>
   <v type="int" >       48       30       70       76       77 </v>
   <v type="int" >       48       30       69       70       77 </v>
   <v type="int" >       48       31       42       43       78 </v>
   <v type="int" >       48       31       32       43       78 </v>
   <v type="int" >       48       31       32       68       78 </v>
   <v type="int" >       48       31       42       77       78 </v>
   <v type="int" >       48       31       69       77       78 </v>
   <v type="int" >       48       31       68       69       78 </v>
   <v type="int" >       48       32       43       44       79 </v>
   <v type="int" >       48       32       33       44       79 </v>
   <v type="int" >       48       32       33       67       79 </v>
   <v type="int" >       48       32       43       78       79 </v>
   <v type="int" >       48       32       68       78       79 </v>
   <v type="int" >       48       32       67       68       79 </v>
   <v type="int" >       24       33       33       44       80 </v>
   <v type="int" >       24       33       33       34       80 </v>
   <v type="int" >       48       33       34       66       80 </v>
   <v type="int" >       48       33       44       79       80 </v>
   <v type="int" >       48       33       67       79       80 </v>
   <v type="int" >       48       33       66       67       80 </v>
   <v type="int" >       24       34       66       66       80 </v>
   <v type="int" >       24       34       65       66       66 </v>
   <v type="int" >       24       35       36       36       45 </v>
   <v type="int" >       24       35       36       36       71 </v>
   <v type="int" >       48       36       45       46       81 </v>
   <v type="int" >       48       36       37       46       81 </v>
   <v type="int" >       48       36       37       72       81 </v>
   <v type="int" >       24       36       36       45       81 </v>
   <v type="int" >       24       36       36       71       81 </v>
   <v type="int" >       48       36       71       72       81 </v>
   <v type="int" >       48       37       46       47       82 </v>
   <v type="int" >       48       37       38       47       82 </v>
   <v type="int" >       48       37       38       73       82 </v>
   <v type="int" >       48       37       46       81       82 </v>
   <v type="int" >       48       37       72       81       82 </v>
   <v type="int" >       48       37       72       73       82 </v>
   <v type="int" >       48       38       47       48       83 </v>
   <v type="int" >       48       38       39       48       83 </v>
   <v type="int" >       48       38       39       74       83 </v>
   <v type="int" >       48       38       47       82       83 </v>
   <v type="int" >       48       38       73       82       83 </v>
   <v type="int" >       48       38       73       74       83 </v>
   <v type="int" >       48       39       48       49       84 </v>
   <v type="int" >       48       39       40       49       84 </v>
   <v type="int" >       48       39       40       75       84 </v>
   <v type="int" >       48       39       48       83       84 </v>
   <v type="int" >       48       39       74       83       84 </v>
   <v type="int" >       48       39       74       75       84 </v>
   <v type="int" >       48       40       49       50       85 </v>
   <v type="int" >       48       40       41       50       85 </v>
   <v type="int" >       48       40       41       76       85 </v>
   <v type="int" >       48       40       49       84       85 </v>
   <v type="int" >       48       40       75       84       85 </v>
   <v type="int" >       48       40       75       76       85 </v>
   <v type="int" >       48       41       50       51       86 </v>
   <v type="int" >       48       41       42       51       86 </v>
   <v type="int" >       48       41       42       77       86 </v>
   <v type="int" >       48       41       50       85       86 </v>
   <v type="int" >       48       41       76       85       86 </v>
   <v type="int" >       48       41       76       77       86 </v>
   <v type="int" >       48       42       51       52       87 </v>
   <v type="int" >       48       42       43       52       87 </v>
   <v type="int" >       48       42       43       78       87 </v>
   <v type="int" >       48       42       51       86       87 </v>
   <v type="int" >       48       42       77       86       87 </v>
   <v type="int" >       48       42       77       78       87 </v>
   <v type="int" >       24       43       43       52       88 </v>
   <v type="int" >       24       43       43       44       88 </v>
   <v type="int" >       48       43       44       79       88 </v>
   <v type="int" >       48       43       52       87       88 </v>
   <v type="int" >       48       43       78       87       88 </v>
   <v type="int" >       48       43       78       79       88 </v>
   <v type="int" >       24       44       79       79       88 </v>
   <v type="int" >       24       44       79       79       80 </v>
   <v type="int" >       24       45       46       46       53 </v>
   <v type="int" >       24       45       46       46       81 </v>
   <v type="int" >       48       46       53       54       89 </v>
   <v type="int" >       48       46       47       54       89 </v>
   <v type="int" >       48       46       47       82       89 </v>
   <v type="int" >       24       46       46       53       89 </v>
   <v type="int" >       24       46       46       81       89 </v>
   <v type="int" >       48       46       81       82       89 </v>
   <v type="int" >       48       47       54       55       90 </v>
   <v type="int" >       48       47       48       55       90 </v>
   <v type="int" >       48       47       48       83       90 </v>
   <v type="int" >       48       47       54       89       90 </v>
   <v type="int" >       48       47       82       89       90 </v>
   <v type="int" >       48       47       82       83       90 </v>
   <v type="int" >       48       48       55       56       91 </v>
   <v type="int" >       48       48       49       56       91 </v>
   <v type="int" >       48       48       49       84       91 </v>
   <v type="int" >       48       48       55       90       91 </v>
   <v type="int" >       48       48       83       90       91 </v>
   <v type="int" >       48       48       83       84       91 </v>
   <v type="int" >       48       49       56       57       92 </v>
   <v type="int" >       48       49       50       57       92 </v>
   <v type="int" >       48       49       50       85       92 </v>
   <v type="int" >       48       49       56       91       92 </v>
   <v type="int" >       48       49       84       91       92 </v>
   <v type="int" >       48       49       84       85       92 </v>
   <v type="int" >       48       50       57       58       93 </v>
   <v type="int" >       48       50       51       58       93 </v>
   <v type="int" >       48       50       51       86       93 </v>
   <v type="int" >       48       50       57       92       93 </v>
   <v type="int" >       48       50       85       92       93 </v>
   <v type="int" >       48       50       85       86       93 </v>
   <v type="int" >       24       51       51       58       94 </v>
   <v type="int" >       24       51       51       52       94 </v>
   <v type="int" >       48       51       52       87       94 </v>
   <v type="int" >       48       51       58       93       94 </v>
   <v type="int" >       48       51       86       93       94 </v>
   <v type="int" >       48       51       86       87       94 </v>
   <v type="int" >       24       52       87       87       94 </v>
   <v type="int" >       24       52       87       87       88 </v>
   <v type="int" >       24       53       54       54       59 </v>
   <v type="int" >       24       53       54       54       89 </v>
   <v type="int" >       48       54       59       60       95 </v>
   <v type="int" >       48       54       55       60       95 </v>
   <v type="int" >       48       54       55       90       95 </v>
   <v type="int" >       24       54       54       59       95 </v>
   <v type="int" >       24       54       54       89       95 </v>
   <v type="int" >       48       54       89       90       95 </v>
   <v type="int" >       48       55       60       61       96 </v>
   <v type="int" >       48       55       56       61       96 </v>
   <v type="int" >       48       55       56       91       96 </v>
   <v type="int" >       48       55       60       95       96 </v>
   <v type="int" >       48       55       90       95       96 </v>
   <v type="int" >       48       55       90       91       96 </v>
   <v type="int" >       48       56       61       62       97 </v>
   <v type="int" >       48       56       57       62       97 </v>
   <v type="int" >       48       56       57       92       97 </v>
   <v type="int" >       48       56       61       96       97 </v>
   <v type="int" >       48       56       91       96       97 </v>
   <v type="int" >       48       56       91       92       97 </v>
   <v type="int" >       24       57       57       62       98 </v>
   <v type="int" >       24       57       57       58       98 </v>
   <v type="int" >       48       57       58       93       98 </v>
   <v type="int" >       48       57       62       97       98 </v>
   <v type="int" >       48       57       92       97       98 </v>
   <v type="int" >       48       57       92       93       98 </v>
   <v type="int" >       24       58       93       93       98 </v>
   <v type="int" >       24       58       93       93       94 </v>
   <v type="int" >       24       59       60       60       63 </v>
   <v type="int" >       24       59       60       60       95 </v>
   <v type="int" >       48       60       63       64       99 </v>
   <v type="int" >       48       60       61       64       99 </v>
   <v type="int" >       48       60       61       96       99 </v>
   <v type="int" >       24       60       60       63       99 </v>
   <v type="int" >       24       60       60       95       99 </v>
   <v type="int" >       48       60       95       96       99 </v>
   <v type="int" >       24       61       61       64      100 </v>
   <v type="int" >       24       61       61       62      100 </v>
   <v type="int" >       48       61       62       97      100 </v>
   <v type="int" >       48       61       64       99      100 </v>
   <v type="int" >       48       61       96       99      100 </v>
   <v type="int" >       48       61       96       97      100 </v>
   <v type="int" >       24       62       97       97      100 </v>
   <v type="int" >       24       62       97       97       98 </v>
   <v type="int" >       12       63       63       64       64 </v>
   <v type="int" >       24       63       64       64       99 </v>
   <v type="int" >       12       64       64       99       99 </v>
   <v type="int" >       24       64       99       99      100 </v>
   <v type="int" >       24       65       66       66       71 </v>
   <v type="int" >       48       66       71       72       80 </v>
   <v type="int" >       48       66       67       72       80 </v>
   <v type="int" >       24       66       66       71       80 </v>
   <v type="int" >       48       67       72       73       79 </v>
   <v type="int" >       48       67       68       73       79 </v>
   <v type="int" >       48       67       72       79       80 </v>
   <v type="int" >       48       68       73       74       78 </v>
   <v type="int" >       48       68       69       74       78 </v>
   <v type="int" >       48       68       73       78       79 </v>
   <v type="int" >       48       69       74       75       77 </v>
   <v type="int" >       48       69       70       75       77 </v>
   <v type="int" >       48       69       74       77       78 </v>
   <v type="int" >       48       70       75       76       76 </v>
   <v type="int" >       24       70       70       76       76 </v>
   <v type="int" >       48       70       75       76       77 </v>
   <v type="int" >       24       71       72       72       81 </v>
   <v type="int" >       24       71       72       72       80 </v>
   <v type="int" >       48       72       81       82      101 </v>
   <v type="int" >       48       72       73       82      101 </v>
   <v type="int" >       48       72       73       79      101 </v>
   <v type="int" >       24       72       72       81      101 </v>
   <v type="int" >       24       72       72       80      101 </v>
   <v type="int" >       48       72       79       80      101 </v>
   <v type="int" >       48       73       82       83      102 </v>
   <v type="int" >       48       73       74       83      102 </v>
   <v type="int" >       48       73       74       78      102 </v>
   <v type="int" >       48       73       82      101      102 </v>
   <v type="int" >       48       73       79      101      102 </v>
   <v type="int" >       48       73       78       79      102 </v>
   <v type="int" >       48       74       83       84      103 </v>
   <v type="int" >       48       74       75       84      103 </v>
   <v type="int" >       48       74       75       77      103 </v>
   <v type="int" >       48       74       83      102      103 </v>
   <v type="int" >       48       74       78      102      103 </v>
   <v type="int" >       48       74       77       78      103 </v>
   <v type="int" >       48       75       84       85      104 </v>
   <v type="int" >       48       75       76       85      104 </v>
   <v type="int" >       48       75       76       76      104 </v>
   <v type="int" >       48       75       84      103      104 </v>
   <v type="int" >       48       75       77      103      104 </v>
   <v type="int" >       48       75       76       77      104 </v>
   <v type="int" >       48       76       85       86      104 </v>
   <v type="int" >       48       76       77       86      104 </v>
   <v type="int" >       48       76       85      104      104 </v>
   <v type="int" >       24       76       76      104      104 </v>
   <v type="int" >       48       77       86       87      103 </v>
   <v type="int" >       48       77       78       87      103 </v>
   <v type="int" >       48       77       86      103      104 </v>
   <v type="int" >       48       78       87       88      102 </v>
   <v type="int" >       48       78       79       88      102 </v>
   <v type="int" >       48       78       87      102      103 </v>
   <v type="int" >       24       79       79       88      101 </v>
   <v type="int" >       24       79       79       80      101 </v>
   <v type="int" >       48       79       88      101      102 </v>
   <v type="int" >       24       81       82       82       89 </v>
   <v type="int" >       24       81       82       82      101 </v>
   <v type="int" >       48       82       89       90      105 </v>
   <v type="int" >       48       82       83       90      105 </v>
   <v type="int" >       48       82       83      102      105 </v>
   <v type="int" >       24       82       82       89      105 </v>
   <v type="int" >       24       82       82      101      105 </v>
   <v type="int" >       48       82      101      102      105 </v>
   <v type="int" >       48       83       90       91      106 </v>
   <v type="int" >       48       83       84       91      106 </v>
   <v type="int" >       48       83       84      103      106 </v>
   <v type="int" >       48       83       90      105      106 </v>
   <v type="int" >       48       83      102      105      106 </v>
   <v type="int" >       48       83      102      103      106 </v>
   <v type="int" >       48       84       91       92      107 </v>
   <v type="int" >       48       84       85       92      107 </v>
   <v type="int" >       48       84       85      104      107 </v>
   <v type="int" >       48       84       91      106      107 </v>
   <v type="int" >       48       84      103      106      107 </v>
   <v type="int" >       48       84      103      104      107 </v>
   <v type="int" >       48       85       92       93      108 </v>
   <v type="int" >       48       85       86       93      108 </v>
   <v type="int" >       48       85       86      104      108 </v>
   <v type="int" >       48       85       92      107      108 </v>
   <v type="int" >       48       85      104      107      108 </v>
   <v type="int" >       48       85      104      104      108 </v>
   <v type="int" >       48       86       93       94      109 </v>
   <v type="int" >       48       86       87       94      109 </v>
   <v type="int" >       48       86       87      103      109 </v>
   <v type="int" >       48       86       93      108      109 </v>
   <v type="int" >       48       86      104      108      109 </v>
   <v type="int" >       48       86      103      104      109 </v>
   <v type="int" >       24       87       87       94      110 </v>
   <v type="int" >       24       87       87       88      110 </v>
   <v type="int" >       48       87       88      102      110 </v>
   <v type="int" >       48       87       94      109      110 </v>
   <v type="int" >       48       87      103      109      110 </v>
   <v type="int" >       48       87      102      103      110 </v>
   <v type="int" >       24       88      102      102      110 </v>
   <v type="int" >       24       88      101      102      102 </v>
   <v type="int" >       24       89       90       90       95 </v>
   <v type="int" >       24       89       90       90      105 </v>
   <v type="int" >       48       90       95       96      111 </v>
   <v type="int" >       48       90       91       96      111 </v>
   <v type="int" >       48       90       91      106      111 </v>
   <v type="int" >       24       90       90       95      111 </v>
   <v type="int" >       24       90       90      105      111 </v>
   <v type="int" >       48       90      105      106      111 </v>
   <v type="int" >       48       91       96       97      112 </v>
   <v type="int" >       48       91       92       97      112 </v>
   <v type="int" >       48       91       92      107      112 </v>
   <v type="int" >       48       91       96      111      112 </v>
   <v type="int" >       48       91      106      111      112 </v>
   <v type="int" >       48       91      106      107      112 </v>
   <v type="int" >       48       92       97       98      113 </v>
   <v type="int" >       48       92       93       98      113 </v>
   <v type="int" >       48       92       93      108      113 </v>
   <v type="int" >       48       92       97      112      113 </v>
   <v type="int" >       48       92      107      112      113 </v>
   <v type="int" >       48       92      107      108      113 </v>
   <v type="int" >       24       93       93       98      114 </v>
   <v type="int" >       24       93       93       94      114 </v>
   <v type="int" >       48       93       94      109      114 </v>
   <v type="int" >       48       93       98      113      114 </v>
   <v type="int" >       48       93      108      113      114 </v>
   <v type="int" >       48       93      108      109      114 </v>
   <v type="int" >       24       94      109      109      114 </v>
   <v type="int" >       24       94      109      109      110 </v>
   <v type="int" >       24       95       96       96       99 </v>
   <v type="int" >       24       95       96       96      111 </v>
   <v type="int" >       48       96       99      100      115 </v>
   <v type="int" >       48       96       97      100      115 </v>
   <v type="int" >       48       96       97      112      115 </v>
   <v type="int" >       24       96       96       99      115 </v>
   <v type="int" >       24       96       96      111      115 </v>
   <v type="int" >       48       96      111      112      115 </v>
   <v type="int" >       24       97       97      100      116 </v>
   <v type="int" >       24       97       97       98      116 </v>
   <v type="int" >       48       97       98      113      116 </v>
   <v type="int" >       48       97      100      115      116 </v>
   <v type="int" >       48       97      112      115      116 </v>
   <v type="int" >       48       97      112      113      116 </v>
   <v type="int" >       24       98      113      113      116 </v>
   <v type="int" >       24       98      113      113      114 </v>
   <v type="int" >       12       99       99      100      100 </v>
   <v type="int" >       24       99      100      100      115 </v>
   <v type="int" >       12      100      100      115      115 </v>
   <v type="int" >       24      100      115      115      116 </v>
   <v type="int" >       24      101      102      102      105 </v>
   <v type="int" >       48      102      105      106      110 </v>
   <v type="int" >       48      102      103      106      110 </v>
   <v type="int" >       24      102      102      105      110 </v>
   <v type="int" >       48      103      106      107      109 </v>
   <v type="int" >       48      103      104      107      109 </v>
   <v type="int" >       48      103      106      109      110 </v>
   <v type="int" >       48      104      107      108      108 </v>
   <v type="int" >       24      104      104      108      108 </v>
   <v type="int" >       48      104      107      108      109 </v>
   <v type="int" >       24      105      106      106      111 </v>
   <v type="int" >       24      105      106      106      110 </v>
   <v type="int" >       48      106      111      112      117 </v>
   <v type="int" >       48      106      107      112      117 </v>
   <v type="int" >       48      106      107      109      117 </v>
   <v type="int" >       24      106      106      111      117 </v>
   <v type="int" >       24      106      106      110      117 </v>
   <v type="int" >       48      106      109      110      117 </v>
   <v type="int" >       48      107      112      113      118 </v>
   <v type="int" >       48      107      108      113      118 </v>
   <v type="int" >       48      107      108      108      118 </v>
   <v type="int" >       48      107      112      117      118 </v>
   <v type="int" >       48      107      109      117      118 </v>
   <v type="int" >       48      107      108      109      118 </v>
   <v type="int" >       48      108      113      114      118 </v>
   <v type="int" >       48      108      109      114      118 </v>
   <v type="int" >       48      108      113      118      118 </v>
   <v type="int" >       24      108      108      118      118 </v>
   <v type="int" >       24      109      109      114      117 </v>
   <v type="int" >       24      109      109      110      117 </v>
   <v type="int" >       48      109      114      117      118 </v>
   <v type="int" >       24      111      112      112      115 </v>
   <v type="int" >       24      111      112      112      117 </v>
   <v type="int" >       48      112      115      116      119 </v>
   <v type="int" >       48      112      113      116      119 </v>
   <v type="int" >       48      112      113      118      119 </v>
   <v type="int" >       24      112      112      115      119 </v>
   <v type="int" >       24      112      112      117      119 </v>
   <v type="int" >       48      112      117      118      119 </v>
   <v type="int" >       24      113      113      116      120 </v>
   <v type="int" >       24      113      113      114      120 </v>
   <v type="int" >       48      113      114      118      120 </v>
   <v type="int" >       48      113      116      119      120 </v>
   <v type="int" >       48      113      118      119      120 </v>
   <v type="int" >       48      113      118      118      120 </v>
   <v type="int" >       24      114      118      118      120 </v>
   <v type="int" >       24      114      117      118      118 </v>
   <v type="int" >       12      115      115      116      116 </v>
   <v type="int" >       24      115      116      116      119 </v>
   <v type="int" >       12      116      116      119      119 </v>
   <v type="int" >       24      116      119      119      120 </v>
   <v type="int" >       24      117      118      118      119 </v>
   <v type="int" >       48      118      119      120      120 </v>
   <v type="int" >       24      118      118      120      120 </v>
   <v type="int" >       24      118      118      119      120 </v>
   <v type="int" >       12      119      119      120      120 </v>
   <v type="int" >       24      119      120      120      120 </v>
   <v type="int" >        6      120      120      120      120 </v>
  </varray>
  <i name="volumeweight">      0.00004938 </i>
 </kpoints>
 <parameters>
  <separator name="general" >
   <i type="string" name="SYSTEM">Mg1O1</i>
   <i type="logical" name="LCOMPAT"> F  </i>
  </separator>
  <separator name="electronic" >
   <i type="string" name="PREC">acc</i>
   <i name="ENMAX">    400.00000000</i>
   <i name="ENAUG">    605.39200000</i>
   <i name="EDIFF">      0.00000100</i>
   <i type="int" name="IALGO">    38</i>
   <i type="int" name="IWAVPR">    10</i>
   <i type="int" name="NBANDS">    10</i>
   <i name="NELECT">      8.00000000</i>
   <i type="int" name="TURBO">     0</i>
   <i type="int" name="IRESTART">     0</i>
   <i type="int" name="NREBOOT">     0</i>
   <i type="int" name="NMIN">     0</i>
   <i name="EREF">      0.00000000</i>
   <separator name="electronic smearing" >
    <i type="int" name="ISMEAR">    -5</i>
    <i name="SIGMA">      0.00000000</i>
    <i name="KSPACING">      0.50000000</i>
    <i type="logical" name="KGAMMA"> T  </i>
   </separator>
   <separator name="electronic projectors" >
    <i type="logical" name="LREAL"> F  </i>
    <v name="ROPT">      0.00000000      0.00000000</v>
    <i type="int" name="LMAXPAW">  -100</i>
    <i type="int" name="LMAXMIX">     2</i>
    <i type="logical" name="NLSPLINE"> F  </i>
   </separator>
   <separator name="electronic startup" >
    <i type="int" name="ISTART">     0</i>
    <i type="int" name="ICHARG">     2</i>
    <i type="int" name="INIWAV">     1</i>
   </separator>
   <separator name="electronic spin" >
    <i type="int" name="ISPIN">     1</i>
    <i type="logical" name="LNONCOLLINEAR"> F  </i>
    <v name="MAGMOM">      1.00000000      1.00000000</v>
    <i name="NUPDOWN">     -1.00000000</i>
    <i type="logical" name="LSORBIT"> F  </i>
    <v name="SAXIS">      0.00000000      0.00000000      1.00000000</v>
    <i type="logical" name="LSPIRAL"> F  </i>
    <v name="QSPIRAL">      0.00000000      0.00000000      0.00000000</v>
    <i type="logical" name="LZEROZ"> F  </i>
   </separator>
   <separator name="electronic exchange-correlation" >
    <i type="logical" name="LASPH"> F  </i>
    <i type="logical" name="LMETAGGA"> F  </i>
   </separator>
   <separator name="electronic convergence" >
    <i type="int" name="NELM">    40</i>
    <i type="int" name="NELMDL">     0</i>
    <i type="int" name="NELMIN">     2</i>
    <i name="ENINI">    400.00000000</i>
    <separator name="electronic convergence detail" >
     <i type="logical" name="LDIAG"> T  </i>
     <i type="logical" name="LSUBROT"> F  </i>
     <i name="WEIMIN">      0.00000000</i>
     <i name="EBREAK">      0.00000002</i>
     <i name="DEPER">      0.30000000</i>
     <i type="int" name="NRMM">     4</i>
     <i name="TIME">      0.40000000</i>
    </separator>
   </separator>
   <separator name="electronic mixer" >
    <i name="AMIX">      0.40000000</i>
    <i name="BMIX">      1.00000000</i>
    <i name="AMIN">      0.10000000</i>
    <i name="AMIX_MAG">      1.60000000</i>
    <i name="BMIX_MAG">      1.00000000</i>
    <separator name="electronic mixer details" >
     <i type="int" name="IMIX">     1</i>
     <i type="logical" name="MIXFIRST"> F  </i>
     <i type="int" name="MAXMIX">   -45</i>
     <i name="WC">    100.00000000</i>
     <i type="int" name="INIMIX">     1</i>
     <i type="int" name="MIXPRE">     1</i>
     <i type="int" name="MREMOVE">     5</i>
    </separator>
   </separator>
   <separator name="electronic dipolcorrection" >
    <i type="logical" name="LDIPOL"> F  </i>
    <i type="logical" name="LMONO"> F  </i>
    <i type="int" name="IDIPOL">     0</i>
    <i name="EPSILON">      1.00000000</i>
    <v name="DIPOL">   -100.00000000   -100.00000000   -100.00000000</v>
    <i name="EFIELD">      0.00000000</i>
   </separator>
  </separator>
  <separator name="grids" >
   <i type="int" name="NGX">    20</i>
   <i type="int" name="NGY">    20</i>
   <i type="int" name="NGZ">    20</i>
   <i type="int" name="NGXF">    40</i>
   <i type="int" name="NGYF">    40</i>
   <i type="int" name="NGZF">    40</i>
   <i type="logical" name="ADDGRID"> F  </i>
  </separator>
  <separator name="ionic" >
   <i type="int" name="NSW">     0</i>
   <i type="int" name="IBRION">    -1</i>
   <i type="int" name="ISIF">     0</i>
   <i name="PSTRESS">      0.00000000</i>
   <i name="EDIFFG">      0.00001000</i>
   <i type="int" name="NFREE">     1</i>
   <i name="POTIM">      0.25000000</i>
   <i name="SMASS">     -3.00000000</i>
   <i name="SCALEE">      1.00000000</i>
  </separator>
  <separator name="ionic md" >
   <i name="TEBEG">      0.00010000</i>
   <i name="TEEND">      0.00010000</i>
   <i type="int" name="NBLOCK">     1</i>
   <i type="int" name="KBLOCK">     1</i>
   <i type="int" name="NPACO">   256</i>
   <i name="APACO">     16.00000000</i>
  </separator>
  <separator name="symmetry" >
   <i type="int" name="ISYM">     3</i>
   <i name="SYMPREC">      0.00001000</i>
  </separator>
  <separator name="dos" >
   <i type="logical" name="LORBIT"> F  </i>
   <v name="RWIGS">     -1.00000000     -1.00000000</v>
   <i type="int" name="NEDOS">  1401</i>
   <i name="EMIN">     10.00000000</i>
   <i name="EMAX">    -10.00000000</i>
   <i name="EFERMI">      0.00000000</i>
  </separator>
  <separator name="writing" >
   <i type="int" name="NWRITE">     0</i>
   <i type="logical" name="LWAVE"> F  </i>
   <i type="logical" name="LCHARG"> F  </i>
   <i type="logical" name="LPARD"> F  </i>
   <i type="logical" name="LVTOT"> F  </i>
   <i type="logical" name="LVHAR"> F  </i>
   <i type="logical" name="LELF"> F  </i>
   <i type="logical" name="LOPTICS"> F  </i>
   <v name="STM">      0.00000000      0.00000000      0.00000000      0.00000000      0.00000000      0.00000000      0.00000000</v>
  </separator>
  <separator name="performance" >
   <i type="int" name="NPAR">     5</i>
   <i type="int" name="NSIM">     4</i>
   <i type="int" name="NBLK">    -1</i>
   <i type="logical" name="LPLANE"> T  </i>
   <i type="logical" name="LSCALAPACK"> T  </i>
   <i type="logical" name="LSCAAWARE"> F  </i>
   <i type="logical" name="LSCALU"> F  </i>
   <i type="logical" name="LASYNC"> F  </i>
   <i type="logical" name="LORBITALREAL"> F  </i>
  </separator>
  <separator name="miscellaneous" >
   <i type="int" name="IDIOT">     3</i>
   <i type="logical" name="LMUSIC"> F  </i>
   <v name="POMASS">     24.30500000     16.00000000</v>
   <v name="DARWINR">      0.00000000      0.00000000</v>
   <v name="DARWINV">      1.00000000      1.00000000</v>
   <i type="logical" name="LCORR"> T  </i>
  </separator>
  <i type="logical" name="GGA_COMPAT"> T  </i>
  <i type="logical" name="LBERRY"> F  </i>
  <i type="int" name="ICORELEVEL">     0</i>
  <i type="logical" name="LDAU"> F  </i>
  <i type="int" name="I_CONSTRAINED_M">     0</i>
  <separator name="electronic exchange-correlation" >
   <i type="string" name="GGA">PE</i>
   <i type="int" name="VOSKOWN">     0</i>
   <i type="logical" name="LHFCALC"> T  </i>
   <i type="string" name="PRECFOCK">normal</i>
   <i type="logical" name="LSYMGRAD"> F  </i>
   <i type="logical" name="LHFONE"> F  </i>
   <i type="logical" name="LRHFCALC"> F  </i>
   <i type="logical" name="LTHOMAS"> F  </i>
   <i type="logical" name="LMODELHF"> F  </i>
   <i name="ENCUT4O">     -1.00000000</i>
   <i type="int" name="EXXOEP">     0</i>
   <i type="int" name="FOURORBIT">     0</i>
   <i name="AEXX">      0.25000000</i>
   <i name="HFALPHA">     -1.00000000</i>
   <i name="MCALPHA">      0.00000000</i>
   <i name="ALDAX">      0.75000000</i>
   <i name="AGGAX">      0.75000000</i>
   <i name="ALDAC">      1.00000000</i>
   <i name="AGGAC">      1.00000000</i>
   <i type="int" name="NKREDX">     1</i>
   <i type="int" name="NKREDY">     1</i>
   <i type="int" name="NKREDZ">     1</i>
   <i type="logical" name="SHIFTRED"> F  </i>
   <i type="logical" name="ODDONLY"> F  </i>
   <i type="logical" name="EVENONLY"> F  </i>
   <i type="int" name="LMAXFOCK">     4</i>
   <i type="int" name="NMAXFOCKAE">     1</i>
   <i type="logical" name="LFOCKAEDFT"> F  </i>
   <i name="HFSCREEN">      0.00000000</i>
   <i name="HFSCREENC">      0.00000000</i>
   <i type="int" name="NBANDSGWLOW">     1</i>
  </separator>
  <separator name="vdW DFT" >
   <i type="logical" name="LUSE_VDW"> F  </i>
   <i name="Zab_VDW">     -0.84910000</i>
   <i name="PARAM1">      0.12340000</i>
   <i name="PARAM2">      1.00000000</i>
   <i name="PARAM3">      0.00000000</i>
  </separator>
  <separator name="model GW" >
   <i type="int" name="MODEL_GW">     0</i>
   <i name="MODEL_EPS0">      5.60715887</i>
   <i name="MODEL_ALPHA">      1.00000000</i>
  </separator>
  <separator name="linear response parameters" >
   <i type="logical" name="LEPSILON"> F  </i>
   <i type="logical" name="LRPA"> F  </i>
   <i type="logical" name="LNABLA"> F  </i>
   <i type="logical" name="LVEL"> F  </i>
   <i type="int" name="KINTER">     0</i>
   <i name="CSHIFT">      0.10000000</i>
   <i name="OMEGAMAX">     -1.00000000</i>
   <i name="DEG_THRESHOLD">      0.00200000</i>
  </separator>
  <separator name="orbital magnetization" >
   <i type="logical" name="NUCIND"> F  </i>
   <v name="MAGPOS">      0.00000000      0.00000000      0.00000000</v>
   <i type="logical" name="LNICSALL"> T  </i>
   <i type="logical" name="ORBITALMAG"> F  </i>
   <i type="logical" name="LMAGBLOCH"> F  </i>
   <i type="logical" name="LCHIMAG"> F  </i>
   <i type="logical" name="LGAUGE"> T  </i>
   <i type="int" name="MAGATOM">     0</i>
   <v name="MAGDIPOL">      0.00000000      0.00000000      0.00000000</v>
   <v name="AVECCONST">      0.00000000      0.00000000      0.00000000</v>
  </separator>
  <separator name="response functions" >
   <i type="logical" name="LADDER"> F  </i>
   <i type="logical" name="LFXC"> F  </i>
   <i type="logical" name="LHARTREE"> T  </i>
   <i type="int" name="IBSE">     0</i>
   <v type="int" name="KPOINT">    -1     0     0     0</v>
   <i type="logical" name="LTCTE"> F  </i>
   <i type="logical" name="LTETE"> F  </i>
   <i type="logical" name="LTRIPLET"> F  </i>
   <i type="logical" name="LFXCEPS"> F  </i>
   <i type="logical" name="LFXHEG"> F  </i>
   <i type="int" name="NATURALO">     0</i>
   <i type="logical" name="L2ORDER"> F  </i>
   <i type="logical" name="LUSEW"> F  </i>
   <i name="ENCUTGW">     -2.00000000</i>
   <i name="ENCUTGWSOFT">     -2.00000000</i>
   <i name="ENCUTLF">     -1.00000000</i>
   <i type="int" name="LMAXMP2">    -1</i>
   <i name="SCISSOR">      0.00000000</i>
   <i type="int" name="NOMEGA">     0</i>
   <i type="int" name="NOMEGAR">     0</i>
   <i type="int" name="NBANDSGW">    -1</i>
   <i type="int" name="NBANDSO">    -1</i>
   <i type="int" name="NBANDSV">    -1</i>
   <i type="int" name="NELM">    40</i>
   <i type="int" name="NELMHF">     1</i>
   <i type="int" name="DIM">     3</i>
   <i type="int" name="ANTIRES">     0</i>
   <i name="OMEGAMAX">    -30.00000000</i>
   <i name="OMEGAMIN">    -30.00000000</i>
   <i name="OMEGATL">   -200.00000000</i>
   <i type="int" name="OMEGAGRID">     0</i>
   <i name="CSHIFT">     -0.10000000</i>
   <i type="logical" name="SELFENERGY"> F  </i>
   <i type="logical" name="LSPECTRAL"> F  </i>
   <i type="logical" name="LSPECTRALGW"> F  </i>
   <i type="logical" name="LSINGLES"> F  </i>
   <i type="logical" name="LFERMIGW"> F  </i>
   <i type="logical" name="ODDONLYGW"> F  </i>
   <i type="logical" name="EVENONLYGW"> F  </i>
   <i type="int" name="NKREDLFX">     1</i>
   <i type="int" name="NKREDLFY">     1</i>
   <i type="int" name="NKREDLFZ">     1</i>
   <i type="int" name="MAXMEM">  1800</i>
   <i type="int" name="TELESCOPE">     0</i>
   <i type="int" name="TAUPAR">     1</i>
   <i type="int" name="OMEGAPAR">    -1</i>
   <i name="LAMBDA">      1.00000000</i>
  </separator>
  <separator name="External order field" >
   <i name="OFIELD_KAPPA">      0.00000000</i>
   <v name="OFIELD_K">      0.00000000      0.00000000      0.00000000</v>
   <i name="OFIELD_Q6_NEAR">      0.00000000</i>
   <i name="OFIELD_Q6_FAR">      0.00000000</i>
   <i name="OFIELD_A">      0.00000000</i>
  </separator>
 </parameters>
 <atominfo>
  <atoms>       2 </atoms>
  <types>       2 </types>
  <array name="atoms" >
   <dimension dim="1">ion</dimension>
   <field type="string">element</field>
   <field type="int">atomtype</field>
   <set>
    <rc><c>Mg</c><c>   1</c></rc>
    <rc><c>O </c><c>   2</c></rc>
   </set>
  </array>
  <array name="atomtypes" >
   <dimension dim="1">type</dimension>
   <field type="int">atomspertype</field>
   <field type="string">element</field>
   <field>mass</field>
   <field>valence</field>
   <field type="string">pseudopotential</field>
   <set>
    <rc><c>   1</c><c>Mg</c><c>     24.30500000</c><c>      2.00000000</c><c>  PAW_PBE Mg 13Apr2007                  </c></rc>
    <rc><c>   1</c><c>O </c><c>     16.00000000</c><c>      6.00000000</c><c>  PAW_PBE O 08Apr2002                   </c></rc>
   </set>
  </array>
 </atominfo>
 <structure name="initialpos" >
  <crystal>
   <varray name="basis" >
    <v>       2.10635000       2.10635000       0.00000000 </v>
    <v>       0.00000000       2.10635000       2.10635000 </v>
    <v>       2.10635000       0.00000000       2.10635000 </v>
   </varray>
   <i name="volume">     18.69052958 </i>
   <varray name="rec_basis" >
    <v>       0.23737745       0.23737745      -0.23737745 </v>
    <v>      -0.23737745       0.23737745       0.23737745 </v>
    <v>       0.23737745      -0.23737745       0.23737745 </v>
   </varray>
  </crystal>
  <varray name="positions" >
   <v>       0.00000000       0.00000000       0.00000000 </v>
   <v>       0.50000000       0.50000000       0.50000000 </v>
  </varray>
 </structure>
 <calculation>
  <scstep>
   <time name="dav">    0.18    0.18</time>
   <time name="total">    0.21    0.22</time>
   <energy>
    <i name="alphaZ">     19.54441401 </i>
    <i name="ewald">   -358.13702104 </i>
    <i name="hartreedc">   -121.08767182 </i>
    <i name="XCdc">    -15.50491503 </i>
    <i name="pawpsdc">    406.12567499 </i>
    <i name="pawaedc">   -367.47470963 </i>
    <i name="eentropy">      0.00000000 </i>
    <i name="bandstr">    190.30618407 </i>
    <i name="atom">    451.73140136 </i>
    <i name="e_fr_energy">    205.50335691 </i>
    <i name="e_wo_entrp">    205.50335691 </i>
    <i name="e_0_energy">    205.50335691 </i>
   </energy>
  </scstep>
  <scstep>
   <time name="dav">    0.55    0.66</time>
   <time name="total">    0.55    0.68</time>
   <energy>
    <i name="e_fr_energy">     11.33569306 </i>
    <i name="e_wo_entrp">     11.33569306 </i>
    <i name="e_0_energy">     11.33569306 </i>
   </energy>
  </scstep>
  <scstep>
   <time name="dav">    0.15    0.15</time>
   <time name="total">    0.16    0.16</time>
   <energy>
    <i name="e_fr_energy">      9.68787473 </i>
    <i name="e_wo_entrp">      9.68787473 </i>
    <i name="e_0_energy">      9.68787473 </i>
   </energy>
  </scstep>
  <scstep>
   <time name="dav">    0.17    0.17</time>
   <time name="total">    0.17    0.18</time>
   <energy>
    <i name="e_fr_energy">      9.68458826 </i>
    <i name="e_wo_entrp">      9.68458826 </i>
    <i name="e_0_energy">      9.68458826 </i>
   </energy>
  </scstep>
  <scstep>
   <time name="dav">  585.51  585.76</time>
   <time name="total">  585.63  585.88</time>
   <energy>
    <i name="e_fr_energy">    -16.45881351 </i>
    <i name="e_wo_entrp">    -16.45881351 </i>
    <i name="e_0_energy">    -16.45881351 </i>
   </energy>
  </scstep>
  <scstep>
   <time name="dav">  576.84  577.05</time>
   <time name="total">  577.09  577.37</time>
   <energy>
    <i name="e_fr_energy">    -14.77975034 </i>
    <i name="e_wo_entrp">    -14.77975034 </i>
    <i name="e_0_energy">    -14.77975034 </i>
   </energy>
  </scstep>
  <scstep>
   <time name="dav">  627.49  627.72</time>
   <time name="total">  627.63  627.87</time>
   <energy>
    <i name="e_fr_energy">    -14.83009190 </i>
    <i name="e_wo_entrp">    -14.83009190 </i>
    <i name="e_0_energy">    -14.83009190 </i>
   </energy>
  </scstep>
  <scstep>
   <time name="dav">  623.35  623.99</time>
   <time name="total">  623.49  624.15</time>
   <energy>
    <i name="e_fr_energy">    -14.82616141 </i>
    <i name="e_wo_entrp">    -14.82616141 </i>
    <i name="e_0_energy">    -14.82616141 </i>
   </energy>
  </scstep>
  <scstep>
   <time name="dav">  584.55  584.78</time>
   <time name="total">  584.68  584.91</time>
   <energy>
    <i name="e_fr_energy">    -14.81645086 </i>
    <i name="e_wo_entrp">    -14.81645086 </i>
    <i name="e_0_energy">    -14.81645086 </i>
   </energy>
  </scstep>
  <scstep>
   <time name="dav">  659.83  660.07</time>
   <time name="total">  659.96  660.22</time>
   <energy>
    <i name="e_fr_energy">    -14.81559836 </i>
    <i name="e_wo_entrp">    -14.81559836 </i>
    <i name="e_0_energy">    -14.81559836 </i>
   </energy>
  </scstep>
  <scstep>
   <time name="dav">  590.90  591.17</time>
   <time name="total">  591.02  591.31</time>
   <energy>
    <i name="e_fr_energy">    -14.81497766 </i>
    <i name="e_wo_entrp">    -14.81497766 </i>
    <i name="e_0_energy">    -14.81497766 </i>
   </energy>
  </scstep>
  <scstep>
   <time name="dav">  614.80  615.07</time>
   <time name="total">  615.02  615.30</time>
   <energy>
    <i name="e_fr_energy">    -14.81481879 </i>
    <i name="e_wo_entrp">    -14.81481879 </i>
    <i name="e_0_energy">    -14.81481879 </i>
   </energy>
  </scstep>
  <scstep>
   <time name="dav">  610.82  611.04</time>
   <time name="total">  610.94  611.17</time>
   <energy>
    <i name="e_fr_energy">    -14.81477959 </i>
    <i name="e_wo_entrp">    -14.81477959 </i>
    <i name="e_0_energy">    -14.81477959 </i>
   </energy>
  </scstep>
  <scstep>
   <time name="dav">  611.29  611.51</time>
   <time name="total">  612.00  612.23</time>
   <energy>
    <i name="e_fr_energy">    -14.81476829 </i>
    <i name="e_wo_entrp">    -14.81476829 </i>
    <i name="e_0_energy">    -14.81476829 </i>
   </energy>
  </scstep>
  <scstep>
   <time name="dav">  622.05  622.29</time>
   <time name="total">  622.73  622.98</time>
   <energy>
    <i name="e_fr_energy">    -14.81476616 </i>
    <i name="e_wo_entrp">    -14.81476616 </i>
    <i name="e_0_energy">    -14.81476616 </i>
   </energy>
  </scstep>
  <scstep>
   <time name="dav">  584.49  584.93</time>
   <time name="total">  584.51  584.96</time>
   <energy>
    <i name="alphaZ">     19.54441401 </i>
    <i name="ewald">   -358.13702104 </i>
    <i name="hartreedc">   -141.78196985 </i>
    <i name="XCdc">    -14.29280211 </i>
    <i name="pawpsdc">    567.58621961 </i>
    <i name="pawaedc">   -529.11665967 </i>
    <i name="eentropy">      0.00000000 </i>
    <i name="bandstr">    -35.62431603 </i>
    <i name="atom">    451.73140136 </i>
    <i name="e_fr_energy">    -14.81476609 </i>
    <i name="e_wo_entrp">    -14.81476609 </i>
    <i name="e_0_energy">    -14.81476609 </i>
   </energy>
  </scstep>
  <structure>
   <crystal>
    <varray name="basis" >
     <v>       2.10635000       2.10635000       0.00000000 </v>
     <v>       0.00000000       2.10635000       2.10635000 </v>
     <v>       2.10635000       0.00000000       2.10635000 </v>
    </varray>
    <i name="volume">     18.69052958 </i>
    <varray name="rec_basis" >
     <v>       0.23737745       0.23737745      -0.23737745 </v>
     <v>      -0.23737745       0.23737745       0.23737745 </v>
     <v>       0.23737745      -0.23737745       0.23737745 </v>
    </varray>
   </crystal>
   <varray name="positions" >
    <v>       0.00000000       0.00000000       0.00000000 </v>
    <v>       0.50000000       0.50000000       0.50000000 </v>
   </varray>
  </structure>
  <varray name="forces" >
   <v>      -0.00000000       0.00000000       0.00000000 </v>
   <v>       0.00000000      -0.00000000      -0.00000000 </v>
  </varray>
  <energy>
   <i name="e_fr_energy">    -14.81476609 </i>
   <i name="e_wo_entrp">    -14.81476609 </i>
   <i name="e_0_energy">      0.00000000 </i>
  </energy>
  <time name="totalsc"> 7569.20 7573.21</time>
  <eigenvalues>
   <array>
    <dimension dim="1">band</dimension>
    <dimension dim="2">kpoint</dimension>
    <dimension dim="3">spin</dimension>
    <field>eigene</field>
    <field>occ</field>
    <set>
     <set comment="spin 1">
      <set comment="kpoint 1">
       <r>  -17.3099    1.0000 </r>
       <r>    1.5322    1.0000 </r>
       <r>    1.5322    1.0000 </r>
       <r>    1.5322    1.0000 </r>
       <r>    8.7141    0.0000 </r>
       <r>   20.0799    0.0000 </r>
       <r>   20.0799    0.0000 </r>
       <r>   20.0799    0.0000 </r>
       <r>   23.9742    0.0000 </r>
       <r>   25.9527    0.0000 </r>
      </set>
      <set comment="kpoint 2">
       <r>  -17.2600    1.0000 </r>
       <r>    1.2168    1.0000 </r>
       <r>    1.4983    1.0000 </r>
       <r>    1.4983    1.0000 </r>
       <r>    9.0197    0.0000 </r>
       <r>   19.3839    0.0000 </r>
       <r>   20.1977    0.0000 </r>
       <r>   20.1977    0.0000 </r>
       <r>   24.9014    0.0000 </r>
       <r>   25.5594    0.0000 </r>
      </set>
      <set comment="kpoint 3">
       <r>  -17.1157    1.0000 </r>
       <r>    0.4351    1.0000 </r>
       <r>    1.4030    1.0000 </r>
       <r>    1.4030    1.0000 </r>
       <r>    9.7614    0.0000 </r>
       <r>   18.2273    0.0000 </r>
       <r>   20.5063    0.0000 </r>
       <r>   20.5063    0.0000 </r>
       <r>   24.9059    0.0000 </r>
       <r>   24.9059    0.0000 </r>
      </set>
      <set comment="kpoint 4">
       <r>  -16.8929    1.0000 </r>
       <r>   -0.5423    1.0000 </r>
       <r>    1.2688    1.0000 </r>
       <r>    1.2688    1.0000 </r>
       <r>   10.6271    0.0000 </r>
       <r>   17.2996    0.0000 </r>
       <r>   20.8522    0.0000 </r>
       <r>   20.8522    0.0000 </r>
       <r>   24.5245    0.0000 </r>
       <r>   24.5245    0.0000 </r>
      </set>
      <set comment="kpoint 5">
       <r>  -16.6230    1.0000 </r>
       <r>   -1.5303    1.0000 </r>
       <r>    1.1193    1.0000 </r>
       <r>    1.1193    1.0000 </r>
       <r>   11.3491    0.0000 </r>
       <r>   16.7918    0.0000 </r>
       <r>   21.0052    0.0000 </r>
       <r>   21.0052    0.0000 </r>
       <r>   24.7035    0.0000 </r>
       <r>   24.7035    0.0000 </r>
      </set>
      <set comment="kpoint 6">
       <r>  -16.3469    1.0000 </r>
       <r>   -2.3925    1.0000 </r>
       <r>    0.9798    1.0000 </r>
       <r>    0.9798    1.0000 </r>
       <r>   11.7730    0.0000 </r>
       <r>   16.7367    0.0000 </r>
       <r>   20.9192    0.0000 </r>
       <r>   20.9192    0.0000 </r>
       <r>   25.4250    0.0000 </r>
       <r>   25.4250    0.0000 </r>
      </set>
      <set comment="kpoint 7">
       <r>  -16.1154    1.0000 </r>
       <r>   -3.0353    1.0000 </r>
       <r>    0.8769    1.0000 </r>
       <r>    0.8769    1.0000 </r>
       <r>   11.9309    0.0000 </r>
       <r>   16.9565    0.0000 </r>
       <r>   20.7617    0.0000 </r>
       <r>   20.7617    0.0000 </r>
       <r>   25.5692    0.0000 </r>
       <r>   26.3621    0.0000 </r>
      </set>
      <set comment="kpoint 8">
       <r>  -15.9820    1.0000 </r>
       <r>   -3.3778    1.0000 </r>
       <r>    0.8204    1.0000 </r>
       <r>    0.8204    1.0000 </r>
       <r>   11.9625    0.0000 </r>
       <r>   17.1720    0.0000 </r>
       <r>   20.6585    0.0000 </r>
       <r>   20.6585    0.0000 </r>
       <r>   25.3786    0.0000 </r>
       <r>   27.0544    0.0000 </r>
      </set>
      <set comment="kpoint 9">
       <r>  -17.2439    1.0000 </r>
       <r>    1.1803    1.0000 </r>
       <r>    1.4539    1.0000 </r>
       <r>    1.4539    1.0000 </r>
       <r>    9.1203    0.0000 </r>
       <r>   19.1570    0.0000 </r>
       <r>   20.2543    0.0000 </r>
       <r>   20.2543    0.0000 </r>
       <r>   24.8822    0.0000 </r>
       <r>   25.1959    0.0000 </r>
      </set>
      <set comment="kpoint 10">
       <r>  -17.1313    1.0000 </r>
       <r>    0.5959    1.0000 </r>
       <r>    1.3523    1.0000 </r>
       <r>    1.3815    1.0000 </r>
       <r>    9.7142    0.0000 </r>
       <r>   18.2306    0.0000 </r>
       <r>   20.4990    0.0000 </r>
       <r>   20.5108    0.0000 </r>
       <r>   24.0400    0.0000 </r>
       <r>   25.8931    0.0000 </r>
      </set>
      <set comment="kpoint 11">
       <r>  -16.9352    1.0000 </r>
       <r>   -0.2814    1.0000 </r>
       <r>    1.2141    1.0000 </r>
       <r>    1.2647    1.0000 </r>
       <r>   10.5433    0.0000 </r>
       <r>   17.3152    0.0000 </r>
       <r>   20.7960    0.0000 </r>
       <r>   20.8407    0.0000 </r>
       <r>   23.4689    0.0000 </r>
       <r>   25.5478    0.0000 </r>
      </set>
      <set comment="kpoint 12">
       <r>  -16.6823    1.0000 </r>
       <r>   -1.2323    1.0000 </r>
       <r>    1.0629    1.0000 </r>
       <r>    1.1063    1.0000 </r>
       <r>   11.3317    0.0000 </r>
       <r>   16.7229    0.0000 </r>
       <r>   20.8488    0.0000 </r>
       <r>   21.0561    0.0000 </r>
       <r>   23.5312    0.0000 </r>
       <r>   25.5623    0.0000 </r>
      </set>
      <set comment="kpoint 13">
       <r>  -16.4077    1.0000 </r>
       <r>   -2.1081    1.0000 </r>
       <r>    0.9293    1.0000 </r>
       <r>    0.9369    1.0000 </r>
       <r>   11.8746    0.0000 </r>
       <r>   16.5711    0.0000 </r>
       <r>   20.6042    0.0000 </r>
       <r>   21.0579    0.0000 </r>
       <r>   24.2427    0.0000 </r>
       <r>   26.0484    0.0000 </r>
      </set>
      <set comment="kpoint 14">
       <r>  -16.1604    1.0000 </r>
       <r>   -2.8048    1.0000 </r>
       <r>    0.7886    1.0000 </r>
       <r>    0.8299    1.0000 </r>
       <r>   12.1191    0.0000 </r>
       <r>   16.7760    0.0000 </r>
       <r>   20.3213    0.0000 </r>
       <r>   20.9315    0.0000 </r>
       <r>   25.2209    0.0000 </r>
       <r>   26.3931    0.0000 </r>
      </set>
      <set comment="kpoint 15">
       <r>  -15.9938    1.0000 </r>
       <r>   -3.2390    1.0000 </r>
       <r>    0.6813    1.0000 </r>
       <r>    0.7811    1.0000 </r>
       <r>   12.1844    0.0000 </r>
       <r>   17.0507    0.0000 </r>
       <r>   20.1400    0.0000 </r>
       <r>   20.8097    0.0000 </r>
       <r>   25.9394    0.0000 </r>
       <r>   26.3956    0.0000 </r>
      </set>
      <set comment="kpoint 16">
       <r>  -15.9482    1.0000 </r>
       <r>   -3.3508    1.0000 </r>
       <r>    0.6327    1.0000 </r>
       <r>    0.7892    1.0000 </r>
       <r>   12.1939    0.0000 </r>
       <r>   17.1467    0.0000 </r>
       <r>   20.0971    0.0000 </r>
       <r>   20.7705    0.0000 </r>
       <r>   26.0218    0.0000 </r>
       <r>   26.8276    0.0000 </r>
      </set>
      <set comment="kpoint 17">
       <r>  -16.0378    1.0000 </r>
       <r>   -3.1264    1.0000 </r>
       <r>    0.6450    1.0000 </r>
       <r>    0.8512    1.0000 </r>
       <r>   12.1786    0.0000 </r>
       <r>   16.9804    0.0000 </r>
       <r>   20.1897    0.0000 </r>
       <r>   20.8435    0.0000 </r>
       <r>   26.1474    0.0000 </r>
       <r>   26.2141    0.0000 </r>
      </set>
      <set comment="kpoint 18">
       <r>  -16.2368    1.0000 </r>
       <r>   -2.5951    1.0000 </r>
       <r>    0.7226    1.0000 </r>
       <r>    0.9601    1.0000 </r>
       <r>   12.0716    0.0000 </r>
       <r>   16.7060    0.0000 </r>
       <r>   20.3879    0.0000 </r>
       <r>   21.0181    0.0000 </r>
       <r>   25.0575    0.0000 </r>
       <r>   26.1562    0.0000 </r>
      </set>
      <set comment="kpoint 19">
       <r>  -16.4989    1.0000 </r>
       <r>   -1.8292    1.0000 </r>
       <r>    0.8526    1.0000 </r>
       <r>    1.1026    1.0000 </r>
       <r>   11.7326    0.0000 </r>
       <r>   16.6077    0.0000 </r>
       <r>   20.6103    0.0000 </r>
       <r>   21.2060    0.0000 </r>
       <r>   24.0549    0.0000 </r>
       <r>   25.5795    0.0000 </r>
      </set>
      <set comment="kpoint 20">
       <r>  -16.7712    1.0000 </r>
       <r>   -0.9201    1.0000 </r>
       <r>    1.0193    1.0000 </r>
       <r>    1.2533    1.0000 </r>
       <r>   11.0854    0.0000 </r>
       <r>   16.9214    0.0000 </r>
       <r>   20.7164    0.0000 </r>
       <r>   21.1586    0.0000 </r>
       <r>   23.6208    0.0000 </r>
       <r>   25.1902    0.0000 </r>
      </set>
      <set comment="kpoint 21">
       <r>  -17.0085    1.0000 </r>
       <r>    0.0132    1.0000 </r>
       <r>    1.2003    1.0000 </r>
       <r>    1.3867    1.0000 </r>
       <r>   10.2500    0.0000 </r>
       <r>   17.6496    0.0000 </r>
       <r>   20.6090    0.0000 </r>
       <r>   20.7769    0.0000 </r>
       <r>   23.9353    0.0000 </r>
       <r>   25.2379    0.0000 </r>
      </set>
      <set comment="kpoint 22">
       <r>  -17.1788    1.0000 </r>
       <r>    0.7971    1.0000 </r>
       <r>    1.3718    1.0000 </r>
       <r>    1.4735    1.0000 </r>
       <r>    9.4675    0.0000 </r>
       <r>   18.6204    0.0000 </r>
       <r>   20.3763    0.0000 </r>
       <r>   20.3866    0.0000 </r>
       <r>   24.6851    0.0000 </r>
       <r>   25.5602    0.0000 </r>
      </set>
      <set comment="kpoint 23">
       <r>  -17.0536    1.0000 </r>
       <r>    0.3588    1.0000 </r>
       <r>    1.2447    1.0000 </r>
       <r>    1.2447    1.0000 </r>
       <r>   10.1146    0.0000 </r>
       <r>   17.6174    0.0000 </r>
       <r>   20.7349    0.0000 </r>
       <r>   20.7349    0.0000 </r>
       <r>   23.0215    0.0000 </r>
       <r>   26.5130    0.0000 </r>
      </set>
      <set comment="kpoint 24">
       <r>  -16.8931    1.0000 </r>
       <r>   -0.2700    1.0000 </r>
       <r>    1.1016    1.0000 </r>
       <r>    1.1099    1.0000 </r>
       <r>   10.8104    0.0000 </r>
       <r>   16.8555    0.0000 </r>
       <r>   20.9522    0.0000 </r>
       <r>   21.0627    0.0000 </r>
       <r>   22.2924    0.0000 </r>
       <r>   26.5433    0.0000 </r>
      </set>
      <set comment="kpoint 25">
       <r>  -16.6677    1.0000 </r>
       <r>   -1.0565    1.0000 </r>
       <r>    0.9316    1.0000 </r>
       <r>    0.9507    1.0000 </r>
       <r>   11.6008    0.0000 </r>
       <r>   16.2839    0.0000 </r>
       <r>   20.5801    0.0000 </r>
       <r>   21.3314    0.0000 </r>
       <r>   22.4796    0.0000 </r>
       <r>   26.5390    0.0000 </r>
      </set>
      <set comment="kpoint 26">
       <r>  -16.4112    1.0000 </r>
       <r>   -1.8396    1.0000 </r>
       <r>    0.7120    1.0000 </r>
       <r>    0.8171    1.0000 </r>
       <r>   12.2559    0.0000 </r>
       <r>   16.0926    0.0000 </r>
       <r>   19.9654    0.0000 </r>
       <r>   21.4124    0.0000 </r>
       <r>   23.2088    0.0000 </r>
       <r>   26.8574    0.0000 </r>
      </set>
      <set comment="kpoint 27">
       <r>  -16.1659    1.0000 </r>
       <r>   -2.5062    1.0000 </r>
       <r>    0.4889    1.0000 </r>
       <r>    0.7216    1.0000 </r>
       <r>   12.6213    0.0000 </r>
       <r>   16.3199    0.0000 </r>
       <r>   19.4653    0.0000 </r>
       <r>   21.3306    0.0000 </r>
       <r>   24.0419    0.0000 </r>
       <r>   27.4028    0.0000 </r>
      </set>
      <set comment="kpoint 28">
       <r>  -15.9802    1.0000 </r>
       <r>   -2.9674    1.0000 </r>
       <r>    0.3029    1.0000 </r>
       <r>    0.6777    1.0000 </r>
       <r>   12.7532    0.0000 </r>
       <r>   16.7300    0.0000 </r>
       <r>   19.1495    0.0000 </r>
       <r>   21.2011    0.0000 </r>
       <r>   24.8086    0.0000 </r>
       <r>   27.7621    0.0000 </r>
      </set>
      <set comment="kpoint 29">
       <r>  -15.8988    1.0000 </r>
       <r>   -3.1595    1.0000 </r>
       <r>    0.1786    1.0000 </r>
       <r>    0.6908    1.0000 </r>
       <r>   12.7956    0.0000 </r>
       <r>   16.9785    0.0000 </r>
       <r>   19.0288    0.0000 </r>
       <r>   21.1210    0.0000 </r>
       <r>   25.4528    0.0000 </r>
       <r>   27.4303    0.0000 </r>
      </set>
      <set comment="kpoint 30">
       <r>  -15.9402    1.0000 </r>
       <r>   -3.0517    1.0000 </r>
       <r>    0.1387    1.0000 </r>
       <r>    0.7608    1.0000 </r>
       <r>   12.8064    0.0000 </r>
       <r>   16.9058    0.0000 </r>
       <r>   19.1028    0.0000 </r>
       <r>   21.1476    0.0000 </r>
       <r>   25.9498    0.0000 </r>
       <r>   26.3764    0.0000 </r>
      </set>
      <set comment="kpoint 31">
       <r>  -16.0958    1.0000 </r>
       <r>   -2.6646    1.0000 </r>
       <r>    0.1903    1.0000 </r>
       <r>    0.8753    1.0000 </r>
       <r>   12.7349    0.0000 </r>
       <r>   16.5903    0.0000 </r>
       <r>   19.3636    0.0000 </r>
       <r>   21.3055    0.0000 </r>
       <r>   25.0256    0.0000 </r>
       <r>   26.1653    0.0000 </r>
      </set>
      <set comment="kpoint 32">
       <r>  -16.3265    1.0000 </r>
       <r>   -2.0612    1.0000 </r>
       <r>    0.3387    1.0000 </r>
       <r>    1.0205    1.0000 </r>
       <r>   12.4404    0.0000 </r>
       <r>   16.3505    0.0000 </r>
       <r>   19.7638    0.0000 </r>
       <r>   21.5840    0.0000 </r>
       <r>   23.7394    0.0000 </r>
       <r>   26.0038    0.0000 </r>
      </set>
      <set comment="kpoint 33">
       <r>  -16.5841    1.0000 </r>
       <r>   -1.3365    1.0000 </r>
       <r>    0.5766    1.0000 </r>
       <r>    1.1728    1.0000 </r>
[...]
       <r>    18.5253     0.4191    13.1082 </r>
       <r>    18.5631     0.4138    13.1239 </r>
       <r>    18.6010     0.4089    13.1395 </r>
       <r>    18.6389     0.4043    13.1549 </r>
       <r>    18.6767     0.3999    13.1701 </r>
       <r>    18.7146     0.3960    13.1852 </r>
       <r>    18.7525     0.3925    13.2001 </r>
       <r>    18.7903     0.3895    13.2149 </r>
       <r>    18.8282     0.3870    13.2296 </r>
       <r>    18.8661     0.3843    13.2442 </r>
       <r>    18.9039     0.3814    13.2587 </r>
       <r>    18.9418     0.3784    13.2731 </r>
       <r>    18.9797     0.3754    13.2874 </r>
       <r>    19.0175     0.3724    13.3015 </r>
       <r>    19.0554     0.3694    13.3156 </r>
       <r>    19.0933     0.3661    13.3295 </r>
       <r>    19.1311     0.3625    13.3433 </r>
       <r>    19.1690     0.3587    13.3570 </r>
       <r>    19.2069     0.3550    13.3705 </r>
       <r>    19.2447     0.3511    13.3838 </r>
       <r>    19.2826     0.3473    13.3971 </r>
       <r>    19.3205     0.3435    13.4101 </r>
       <r>    19.3583     0.3397    13.4231 </r>
       <r>    19.3962     0.3363    13.4359 </r>
       <r>    19.4341     0.3330    13.4486 </r>
       <r>    19.4719     0.3299    13.4611 </r>
       <r>    19.5098     0.3297    13.4736 </r>
       <r>    19.5477     0.3283    13.4861 </r>
       <r>    19.5855     0.3267    13.4985 </r>
       <r>    19.6234     0.3249    13.5108 </r>
       <r>    19.6613     0.3231    13.5231 </r>
       <r>    19.6991     0.3210    13.5353 </r>
       <r>    19.7370     0.3188    13.5474 </r>
       <r>    19.7749     0.3165    13.5594 </r>
       <r>    19.8127     0.3142    13.5713 </r>
       <r>    19.8506     0.3119    13.5832 </r>
       <r>    19.8885     0.3096    13.5950 </r>
       <r>    19.9263     0.3075    13.6066 </r>
       <r>    19.9642     0.3059    13.6183 </r>
       <r>    20.0021     0.3046    13.6298 </r>
       <r>    20.0399     0.3038    13.6413 </r>
       <r>    20.0778     0.3032    13.6528 </r>
       <r>    20.1157     0.3370    13.6652 </r>
       <r>    20.1535     0.3796    13.6787 </r>
       <r>    20.1914     0.4394    13.6941 </r>
       <r>    20.2293     0.4610    13.7113 </r>
       <r>    20.2671     0.4803    13.7291 </r>
       <r>    20.3050     0.5011    13.7477 </r>
       <r>    20.3429     0.5214    13.7671 </r>
       <r>    20.3807     0.5415    13.7872 </r>
       <r>    20.4186     0.5639    13.8081 </r>
       <r>    20.4565     0.5887    13.8299 </r>
       <r>    20.4943     0.6140    13.8527 </r>
       <r>    20.5322     0.6311    13.8763 </r>
       <r>    20.5701     0.7046    13.9013 </r>
       <r>    20.6079     0.8719    13.9308 </r>
       <r>    20.6458     0.9242    13.9658 </r>
       <r>    20.6837     0.8500    13.9984 </r>
       <r>    20.7215     0.8874    14.0312 </r>
       <r>    20.7594     0.9318    14.0657 </r>
       <r>    20.7972     0.9130    14.1010 </r>
       <r>    20.8351     0.8267    14.1341 </r>
       <r>    20.8730     0.7638    14.1637 </r>
       <r>    20.9108     0.7635    14.1926 </r>
       <r>    20.9487     0.7978    14.2220 </r>
       <r>    20.9866     0.8486    14.2531 </r>
       <r>    21.0244     0.9153    14.2864 </r>
       <r>    21.0623     1.0051    14.3229 </r>
       <r>    21.1002     1.0352    14.3615 </r>
       <r>    21.1380     1.0694    14.4014 </r>
       <r>    21.1759     1.1004    14.4424 </r>
       <r>    21.2138     1.1436    14.4849 </r>
       <r>    21.2516     1.1881    14.5290 </r>
       <r>    21.2895     1.2244    14.5747 </r>
       <r>    21.3274     1.2499    14.6216 </r>
       <r>    21.3652     1.5703    14.6777 </r>
       <r>    21.4031     1.4628    14.7349 </r>
       <r>    21.4410     1.4889    14.7908 </r>
       <r>    21.4788     1.5128    14.8476 </r>
       <r>    21.5167     1.5281    14.9052 </r>
       <r>    21.5546     1.5302    14.9632 </r>
       <r>    21.5924     1.5368    15.0212 </r>
       <r>    21.6303     1.4984    15.0790 </r>
       <r>    21.6682     1.4886    15.1354 </r>
       <r>    21.7060     1.4839    15.1917 </r>
       <r>    21.7439     1.4781    15.2479 </r>
       <r>    21.7818     1.4689    15.3036 </r>
       <r>    21.8196     1.4483    15.3589 </r>
       <r>    21.8575     1.4074    15.4131 </r>
       <r>    21.8954     1.3860    15.4654 </r>
       <r>    21.9332     1.3061    15.5183 </r>
       <r>    21.9711     1.0789    15.5630 </r>
       <r>    22.0090     0.9054    15.6007 </r>
       <r>    22.0468     0.8165    15.6331 </r>
       <r>    22.0847     0.7549    15.6628 </r>
       <r>    22.1226     0.7021    15.6904 </r>
       <r>    22.1604     0.6305    15.7153 </r>
       <r>    22.1983     0.6098    15.7388 </r>
       <r>    22.2362     0.5962    15.7616 </r>
       <r>    22.2740     0.5852    15.7840 </r>
       <r>    22.3119     0.5757    15.8059 </r>
       <r>    22.3498     0.5678    15.8276 </r>
       <r>    22.3876     0.5623    15.8490 </r>
       <r>    22.4255     0.5571    15.8702 </r>
       <r>    22.4634     0.5459    15.8911 </r>
       <r>    22.5012     0.5351    15.9115 </r>
       <r>    22.5391     0.5278    15.9316 </r>
       <r>    22.5770     0.5268    15.9516 </r>
       <r>    22.6148     0.5297    15.9716 </r>
       <r>    22.6527     0.5354    15.9917 </r>
       <r>    22.6906     0.5426    16.0121 </r>
       <r>    22.7284     0.5508    16.0328 </r>
       <r>    22.7663     0.5599    16.0539 </r>
       <r>    22.8042     0.5700    16.0753 </r>
       <r>    22.8420     0.5798    16.0970 </r>
       <r>    22.8799     0.5802    16.1190 </r>
       <r>    22.9178     0.5790    16.1409 </r>
       <r>    22.9556     0.5915    16.1631 </r>
       <r>    22.9935     0.6102    16.1858 </r>
       <r>    23.0314     0.6312    16.2093 </r>
       <r>    23.0692     0.6539    16.2336 </r>
       <r>    23.1071     0.6830    16.2589 </r>
       <r>    23.1450     0.7229    16.2855 </r>
       <r>    23.1828     0.7705    16.3137 </r>
       <r>    23.2207     0.8020    16.3436 </r>
       <r>    23.2586     0.8160    16.3743 </r>
       <r>    23.2964     0.8290    16.4054 </r>
       <r>    23.3343     0.8407    16.4370 </r>
       <r>    23.3721     0.8517    16.4691 </r>
       <r>    23.4100     0.8687    16.5016 </r>
       <r>    23.4479     0.9098    16.5352 </r>
       <r>    23.4857     0.9029    16.5699 </r>
       <r>    23.5236     0.8707    16.6034 </r>
       <r>    23.5615     0.8572    16.6361 </r>
       <r>    23.5993     0.8591    16.6686 </r>
       <r>    23.6372     0.8973    16.7015 </r>
       <r>    23.6751     0.8604    16.7353 </r>
       <r>    23.7129     0.8289    16.7671 </r>
       <r>    23.7508     0.8068    16.7981 </r>
       <r>    23.7887     0.7874    16.8283 </r>
       <r>    23.8265     0.7608    16.8577 </r>
       <r>    23.8644     0.7440    16.8861 </r>
       <r>    23.9023     0.7345    16.9141 </r>
       <r>    23.9401     0.7157    16.9416 </r>
       <r>    23.9780     0.7008    16.9683 </r>
       <r>    24.0159     0.6901    16.9947 </r>
       <r>    24.0537     0.6786    17.0206 </r>
       <r>    24.0916     0.6663    17.0460 </r>
       <r>    24.1295     0.6567    17.0711 </r>
       <r>    24.1673     0.6483    17.0958 </r>
       <r>    24.2052     0.6411    17.1202 </r>
       <r>    24.2431     0.6358    17.1444 </r>
       <r>    24.2809     0.6324    17.1684 </r>
       <r>    24.3188     0.6302    17.1923 </r>
       <r>    24.3567     0.6290    17.2161 </r>
       <r>    24.3945     0.6290    17.2399 </r>
       <r>    24.4324     0.6298    17.2637 </r>
       <r>    24.4703     0.6312    17.2876 </r>
       <r>    24.5081     0.6333    17.3116 </r>
       <r>    24.5460     0.6372    17.3356 </r>
       <r>    24.5839     0.6441    17.3599 </r>
       <r>    24.6217     0.6570    17.3845 </r>
       <r>    24.6596     0.6750    17.4097 </r>
       <r>    24.6975     0.6982    17.4357 </r>
       <r>    24.7353     0.7276    17.4626 </r>
       <r>    24.7732     0.7621    17.4908 </r>
       <r>    24.8111     0.7888    17.5202 </r>
       <r>    24.8489     0.8023    17.5504 </r>
       <r>    24.8868     0.7806    17.5805 </r>
       <r>    24.9247     0.7245    17.6086 </r>
       <r>    24.9625     0.7263    17.6360 </r>
       <r>    25.0004     0.7072    17.6633 </r>
       <r>    25.0383     0.6621    17.6893 </r>
       <r>    25.0761     0.5967    17.7131 </r>
       <r>    25.1140     0.5583    17.7350 </r>
       <r>    25.1519     0.5191    17.7554 </r>
       <r>    25.1897     0.4813    17.7743 </r>
       <r>    25.2276     0.4790    17.7923 </r>
       <r>    25.2655     0.5050    17.8109 </r>
       <r>    25.3033     0.5293    17.8306 </r>
       <r>    25.3412     0.5014    17.8501 </r>
       <r>    25.3791     0.5082    17.8692 </r>
       <r>    25.4169     0.5183    17.8887 </r>
       <r>    25.4548     0.5315    17.9085 </r>
       <r>    25.4927     0.5496    17.9290 </r>
       <r>    25.5305     0.5726    17.9502 </r>
       <r>    25.5684     0.5745    17.9722 </r>
       <r>    25.6063     0.5793    17.9941 </r>
       <r>    25.6441     0.5855    18.0161 </r>
       <r>    25.6820     0.5928    18.0384 </r>
       <r>    25.7199     0.6000    18.0610 </r>
       <r>    25.7577     0.6082    18.0839 </r>
       <r>    25.7956     0.6181    18.1071 </r>
       <r>    25.8335     0.6286    18.1307 </r>
       <r>    25.8713     0.6381    18.1546 </r>
       <r>    25.9092     0.6557    18.1791 </r>
       <r>    25.9471     0.7575    18.2052 </r>
       <r>    25.9849     0.8060    18.2355 </r>
       <r>    26.0228     0.6269    18.2640 </r>
       <r>    26.0606     0.5898    18.2870 </r>
       <r>    26.0985     0.5754    18.3090 </r>
       <r>    26.1364     0.5776    18.3308 </r>
       <r>    26.1742     0.5890    18.3528 </r>
       <r>    26.2121     0.6137    18.3756 </r>
       <r>    26.2500     0.6369    18.3993 </r>
       <r>    26.2878     0.6575    18.4238 </r>
       <r>    26.3257     0.6759    18.4491 </r>
       <r>    26.3636     0.7082    18.4752 </r>
       <r>    26.4014     0.6631    18.5013 </r>
       <r>    26.4393     0.6792    18.5268 </r>
       <r>    26.4772     0.6924    18.5527 </r>
       <r>    26.5150     0.7027    18.5792 </r>
       <r>    26.5529     0.7095    18.6059 </r>
       <r>    26.5908     0.7124    18.6328 </r>
       <r>    26.6286     0.7111    18.6598 </r>
       <r>    26.6665     0.7056    18.6866 </r>
       <r>    26.7044     0.7720    18.7145 </r>
       <r>    26.7422     0.9199    18.7468 </r>
       <r>    26.7801     0.8966    18.7818 </r>
       <r>    26.8180     0.8306    18.8147 </r>
       <r>    26.8558     0.7737    18.8448 </r>
       <r>    26.8937     0.7437    18.8735 </r>
       <r>    26.9316     0.7138    18.9011 </r>
       <r>    26.9694     0.6821    18.9275 </r>
       <r>    27.0073     0.6573    18.9535 </r>
       <r>    27.0452     0.6249    18.9778 </r>
       <r>    27.0830     0.6005    19.0009 </r>
       <r>    27.1209     0.5799    19.0233 </r>
       <r>    27.1588     0.5604    19.0448 </r>
       <r>    27.1966     0.5419    19.0657 </r>
       <r>    27.2345     0.5251    19.0859 </r>
       <r>    27.2724     0.5098    19.1055 </r>
       <r>    27.3102     0.4960    19.1245 </r>
       <r>    27.3481     0.4834    19.1431 </r>
       <r>    27.3860     0.4720    19.1612 </r>
       <r>    27.4238     0.4618    19.1788 </r>
       <r>    27.4617     0.4524    19.1961 </r>
       <r>    27.4996     0.4433    19.2131 </r>
       <r>    27.5374     0.4346    19.2297 </r>
       <r>    27.5753     0.4260    19.2460 </r>
       <r>    27.6132     0.4175    19.2620 </r>
       <r>    27.6510     0.4092    19.2776 </r>
       <r>    27.6889     0.4009    19.2930 </r>
       <r>    27.7268     0.3927    19.3080 </r>
       <r>    27.7646     0.3846    19.3227 </r>
       <r>    27.8025     0.3767    19.3371 </r>
       <r>    27.8404     0.3691    19.3512 </r>
       <r>    27.8782     0.3618    19.3651 </r>
       <r>    27.9161     0.3547    19.3786 </r>
       <r>    27.9540     0.3478    19.3919 </r>
       <r>    27.9918     0.3411    19.4050 </r>
       <r>    28.0297     0.3347    19.4178 </r>
       <r>    28.0676     0.3284    19.4303 </r>
       <r>    28.1054     0.3223    19.4427 </r>
       <r>    28.1433     0.3163    19.4548 </r>
       <r>    28.1812     0.3104    19.4666 </r>
       <r>    28.2190     0.3057    19.4783 </r>
       <r>    28.2569     0.3001    19.4897 </r>
       <r>    28.2948     0.2944    19.5010 </r>
       <r>    28.3326     0.2888    19.5120 </r>
       <r>    28.3705     0.2832    19.5229 </r>
       <r>    28.4084     0.2777    19.5335 </r>
       <r>    28.4462     0.2722    19.5439 </r>
       <r>    28.4841     0.2672    19.5541 </r>
       <r>    28.5220     0.2625    19.5641 </r>
       <r>    28.5598     0.2579    19.5740 </r>
       <r>    28.5977     0.2534    19.5837 </r>
       <r>    28.6355     0.2489    19.5932 </r>
       <r>    28.6734     0.2444    19.6025 </r>
       <r>    28.7113     0.2400    19.6117 </r>
       <r>    28.7491     0.2357    19.6207 </r>
       <r>    28.7870     0.2314    19.6296 </r>
       <r>    28.8249     0.2273    19.6382 </r>
       <r>    28.8627     0.2232    19.6468 </r>
       <r>    28.9006     0.2191    19.6551 </r>
       <r>    28.9385     0.2152    19.6634 </r>
       <r>    28.9763     0.2113    19.6714 </r>
       <r>    29.0142     0.2075    19.6794 </r>
       <r>    29.0521     0.2038    19.6872 </r>
       <r>    29.0899     0.2002    19.6948 </r>
       <r>    29.1278     0.1969    19.7023 </r>
       <r>    29.1657     0.1935    19.7097 </r>
       <r>    29.2035     0.1904    19.7170 </r>
       <r>    29.2414     0.1875    19.7241 </r>
       <r>    29.2793     0.1848    19.7312 </r>
       <r>    29.3171     0.1823    19.7381 </r>
       <r>    29.3550     0.1801    19.7450 </r>
       <r>    29.3929     0.1782    19.7518 </r>
       <r>    29.4307     0.1754    19.7585 </r>
       <r>    29.4686     0.1724    19.7651 </r>
       <r>    29.5065     0.1694    19.7715 </r>
       <r>    29.5443     0.1665    19.7779 </r>
       <r>    29.5822     0.1636    19.7841 </r>
       <r>    29.6201     0.1608    19.7903 </r>
       <r>    29.6579     0.1581    19.7963 </r>
       <r>    29.6958     0.1554    19.8022 </r>
       <r>    29.7337     0.1528    19.8081 </r>
       <r>    29.7715     0.1502    19.8138 </r>
       <r>    29.8094     0.1477    19.8195 </r>
       <r>    29.8473     0.1453    19.8250 </r>
       <r>    29.8851     0.1432    19.8305 </r>
       <r>    29.9230     0.1412    19.8359 </r>
       <r>    29.9609     0.1395    19.8412 </r>
       <r>    29.9987     0.1380    19.8464 </r>
       <r>    30.0366     0.1366    19.8516 </r>
       <r>    30.0745     0.1355    19.8568 </r>
       <r>    30.1123     0.1349    19.8619 </r>
       <r>    30.1502     0.1395    19.8670 </r>
       <r>    30.1881     0.1603    19.8727 </r>
       <r>    30.2259     0.1779    19.8791 </r>
       <r>    30.2638     0.1925    19.8862 </r>
       <r>    30.3017     0.2112    19.8938 </r>
       <r>    30.3395     0.2486    19.9024 </r>
       <r>    30.3774     0.3072    19.9129 </r>
       <r>    30.4153     0.3486    19.9258 </r>
       <r>    30.4531     0.3078    19.9379 </r>
       <r>    30.4910     0.2906    19.9493 </r>
       <r>    30.5289     0.2595    19.9598 </r>
       <r>    30.5667     0.2145    19.9688 </r>
       <r>    30.6046     0.1663    19.9759 </r>
       <r>    30.6425     0.1419    19.9817 </r>
       <r>    30.6803     0.1169    19.9866 </r>
       <r>    30.7182     0.0915    19.9906 </r>
       <r>    30.7561     0.0660    19.9936 </r>
       <r>    30.7939     0.0518    19.9958 </r>
       <r>    30.8318     0.0478    19.9976 </r>
       <r>    30.8697     0.0540    19.9995 </r>
       <r>    30.9075     0.0000    20.0000 </r>
       <r>    30.9454     0.0000    20.0000 </r>
       <r>    30.9833     0.0000    20.0000 </r>
       <r>    31.0211     0.0000    20.0000 </r>
       <r>    31.0590     0.0000    20.0000 </r>
       <r>    31.0969     0.0000    20.0000 </r>
       <r>    31.1347     0.0000    20.0000 </r>
       <r>    31.1726     0.0000    20.0000 </r>
       <r>    31.2104     0.0000    20.0000 </r>
       <r>    31.2483     0.0000    20.0000 </r>
       <r>    31.2862     0.0000    20.0000 </r>
       <r>    31.3240     0.0000    20.0000 </r>
       <r>    31.3619     0.0000    20.0000 </r>
       <r>    31.3998     0.0000    20.0000 </r>
       <r>    31.4376     0.0000    20.0000 </r>
       <r>    31.4755     0.0000    20.0000 </r>
       <r>    31.5134     0.0000    20.0000 </r>
       <r>    31.5512     0.0000    20.0000 </r>
       <r>    31.5891     0.0000    20.0000 </r>
       <r>    31.6270     0.0000    20.0000 </r>
       <r>    31.6648     0.0000    20.0000 </r>
       <r>    31.7027     0.0000    20.0000 </r>
       <r>    31.7406     0.0000    20.0000 </r>
       <r>    31.7784     0.0000    20.0000 </r>
       <r>    31.8163     0.0000    20.0000 </r>
       <r>    31.8542     0.0000    20.0000 </r>
       <r>    31.8920     0.0000    20.0000 </r>
       <r>    31.9299     0.0000    20.0000 </r>
       <r>    31.9678     0.0000    20.0000 </r>
       <r>    32.0056     0.0000    20.0000 </r>
       <r>    32.0435     0.0000    20.0000 </r>
       <r>    32.0814     0.0000    20.0000 </r>
       <r>    32.1192     0.0000    20.0000 </r>
       <r>    32.1571     0.0000    20.0000 </r>
       <r>    32.1950     0.0000    20.0000 </r>
       <r>    32.2328     0.0000    20.0000 </r>
       <r>    32.2707     0.0000    20.0000 </r>
       <r>    32.3086     0.0000    20.0000 </r>
       <r>    32.3464     0.0000    20.0000 </r>
       <r>    32.3843     0.0000    20.0000 </r>
       <r>    32.4222     0.0000    20.0000 </r>
       <r>    32.4600     0.0000    20.0000 </r>
       <r>    32.4979     0.0000    20.0000 </r>
       <r>    32.5358     0.0000    20.0000 </r>
       <r>    32.5736     0.0000    20.0000 </r>
       <r>    32.6115     0.0000    20.0000 </r>
       <r>    32.6494     0.0000    20.0000 </r>
       <r>    32.6872     0.0000    20.0000 </r>
       <r>    32.7251     0.0000    20.0000 </r>
       <r>    32.7630     0.0000    20.0000 </r>
       <r>    32.8008     0.0000    20.0000 </r>
       <r>    32.8387     0.0000    20.0000 </r>
       <r>    32.8766     0.0000    20.0000 </r>
       <r>    32.9144     0.0000    20.0000 </r>
       <r>    32.9523     0.0000    20.0000 </r>
       <r>    32.9902     0.0000    20.0000 </r>
       <r>    33.0280     0.0000    20.0000 </r>
       <r>    33.0659     0.0000    20.0000 </r>
       <r>    33.1038     0.0000    20.0000 </r>
       <r>    33.1416     0.0000    20.0000 </r>
       <r>    33.1795     0.0000    20.0000 </r>
       <r>    33.2174     0.0000    20.0000 </r>
       <r>    33.2552     0.0000    20.0000 </r>
       <r>    33.2931     0.0000    20.0000 </r>
      </set>
     </set>
    </array>
   </total>
  </dos>
 </calculation>
 <structure name="finalpos" >
  <crystal>
   <varray name="basis" >
    <v>       2.10635000       2.10635000       0.00000000 </v>
    <v>       0.00000000       2.10635000       2.10635000 </v>
    <v>       2.10635000       0.00000000       2.10635000 </v>
   </varray>
   <i name="volume">     18.69052958 </i>
   <varray name="rec_basis" >
    <v>       0.23737745       0.23737745      -0.23737745 </v>
    <v>      -0.23737745       0.23737745       0.23737745 </v>
    <v>       0.23737745      -0.23737745       0.23737745 </v>
   </varray>
  </crystal>
  <varray name="positions" >
   <v>       0.00000000       0.00000000       0.00000000 </v>
   <v>       0.50000000       0.50000000       0.50000000 </v>
  </varray>
 </structure>
</modeling>
